BEN                                                                     
Freq      RwB97XD                                                     6-311++G(d,p)       
Number of atoms                            I               12
Info1-9                                    I   N=           9
          23          23        1002           0           0         100
           6          18       -5802
Full Title                                 C   N=           1
BEN         
Route                                      C   N=           5
#Opt Freq wb97xD 6-311++G(d, p) pop=(CM5, ESP, NBOREAD)     
Charge                                     I                0
Multiplicity                               I                1
Number of electrons                        I               42
Number of alpha electrons                  I               21
Number of beta electrons                   I               21
Number of basis functions                  I              174
Number of independent functions            I              174
Number of point charges in /Mol/           I                0
Number of translation vectors              I                0
Atomic numbers                             I   N=          12
           6           6           6           1           6           1
           6           1           6           1           1           1
Nuclear charges                            R   N=          12
  6.00000000E+00  6.00000000E+00  6.00000000E+00  1.00000000E+00  6.00000000E+00
  1.00000000E+00  6.00000000E+00  1.00000000E+00  6.00000000E+00  1.00000000E+00
  1.00000000E+00  1.00000000E+00
Current cartesian coordinates              R   N=          36
  5.67319312E-31  2.27606876E+00  1.31402326E+00  1.60921438E-16  2.27606876E+00
 -1.31402326E+00  1.33585615E-30  1.18329136E-30  2.62842852E+00  8.49900435E-31
  4.05035000E+00  2.33938198E+00  3.21889657E-16 -7.88860905E-31 -2.62842852E+00
  2.86491665E-16  4.05035000E+00 -2.33938198E+00 -2.78738033E-16 -2.27606876E+00
 -1.31402326E+00 -2.86262820E-30 -3.94430453E-30 -4.67759665E+00 -2.78738033E-16
 -2.27606876E+00  1.31402326E+00 -4.96024816E-16 -4.05035000E+00 -2.33938198E+00
 -4.96024816E-16 -4.05035000E+00  2.33938198E+00 -5.72840376E-16  3.15544362E-30
  4.67759665E+00
Number of symbols in /Mol/                 I                0
Force Field                                I                0
Atom Types                                 C   N=          12
                                                            
                                                            
                        
Int Atom Types                             I   N=          12
           0           0           0           0           0           0
           0           0           0           0           0           0
MM charges                                 R   N=          12
  0.00000000E+00  0.00000000E+00  0.00000000E+00  0.00000000E+00  0.00000000E+00
  0.00000000E+00  0.00000000E+00  0.00000000E+00  0.00000000E+00  0.00000000E+00
  0.00000000E+00  0.00000000E+00
Integer atomic weights                     I   N=          12
          12          12          12           1          12           1
          12           1          12           1           1           1
Real atomic weights                        R   N=          12
  1.20000000E+01  1.20000000E+01  1.20000000E+01  1.00782504E+00  1.20000000E+01
  1.00782504E+00  1.20000000E+01  1.00782504E+00  1.20000000E+01  1.00782504E+00
  1.00782504E+00  1.00782504E+00
Atom fragment info                         I   N=          12
           0           0           0           0           0           0
           0           0           0           0           0           0
Atom residue num                           I   N=          12
           0           0           0           0           0           0
           0           0           0           0           0           0
Nuclear spins                              I   N=          12
           0           0           0           1           0           1
           0           1           0           1           1           1
Nuclear ZEff                               R   N=          12
 -3.60000000E+00 -3.60000000E+00 -3.60000000E+00 -1.00000000E+00 -3.60000000E+00
 -1.00000000E+00 -3.60000000E+00 -1.00000000E+00 -3.60000000E+00 -1.00000000E+00
 -1.00000000E+00 -1.00000000E+00
Nuclear ZNuc                               R   N=          12
  6.00000000E+00  6.00000000E+00  6.00000000E+00  1.00000000E+00  6.00000000E+00
  1.00000000E+00  6.00000000E+00  1.00000000E+00  6.00000000E+00  1.00000000E+00
  1.00000000E+00  1.00000000E+00
Nuclear QMom                               R   N=          12
  0.00000000E+00  0.00000000E+00  0.00000000E+00  0.00000000E+00  0.00000000E+00
  0.00000000E+00  0.00000000E+00  0.00000000E+00  0.00000000E+00  0.00000000E+00
  0.00000000E+00  0.00000000E+00
Nuclear GFac                               R   N=          12
  0.00000000E+00  0.00000000E+00  0.00000000E+00  2.79284600E+00  0.00000000E+00
  2.79284600E+00  0.00000000E+00  2.79284600E+00  0.00000000E+00  2.79284600E+00
  2.79284600E+00  2.79284600E+00
MicOpt                                     I   N=          12
          -1          -1          -1          -1          -1          -1
          -1          -1          -1          -1          -1          -1
Number of residues                         I                0
Number of secondary structures             I                0
Redundant internal dimensions              I   N=           4
          54          12          18          24
Redundant internal coordinate indices      I   N=         216
           1           2           0           0           1           3
           0           0           1           4           0           0
           2           5           0           0           2           6
           0           0           3           9           0           0
           3          12           0           0           5           7
           0           0           5           8           0           0
           7           9           0           0           7          10
           0           0           9          11           0           0
           2           1           3           0           2           1
           4           0           3           1           4           0
           1           2           5           0           1           2
           6           0           5           2           6           0
           1           3           9           0           1           3
          12           0           9           3          12           0
           2           5           7           0           2           5
           8           0           7           5           8           0
           5           7           9           0           5           7
          10           0           9           7          10           0
           3           9           7           0           3           9
          11           0           7           9          11           0
           3           1           2           5           3           1
           2           6           4           1           2           5
           4           1           2           6           2           1
           3           9           2           1           3          12
           4           1           3           9           4           1
           3          12           1           2           5           7
           1           2           5           8           6           2
           5           7           6           2           5           8
           1           3           9           7           1           3
           9          11          12           3           9           7
          12           3           9          11           2           5
           7           9           2           5           7          10
           8           5           7           9           8           5
           7          10           5           7           9           3
           5           7           9          11          10           7
           9           3          10           7           9          11
Redundant internal coordinates             R   N=          54
  2.62804652E+00  2.62833602E+00  2.04925216E+00  2.62833602E+00  2.04925216E+00
  2.62833602E+00  2.04916812E+00  2.62833602E+00  2.04916812E+00  2.62804652E+00
  2.04925216E+00  2.04925216E+00  2.09449934E+00  2.09480798E+00  2.09387799E+00
  2.09449934E+00  2.09480798E+00  2.09387799E+00  2.09418663E+00  2.09449934E+00
  2.09449934E+00  2.09418663E+00  2.09449934E+00  2.09449934E+00  2.09449934E+00
  2.09387799E+00  2.09480798E+00  2.09449934E+00  2.09387799E+00  2.09480798E+00
  0.00000000E+00  3.14159265E+00  3.14159265E+00 -0.00000000E+00 -0.00000000E+00
  3.14159265E+00  3.14159265E+00  0.00000000E+00  0.00000000E+00  3.14159265E+00
  3.14159265E+00 -0.00000000E+00  0.00000000E+00  3.14159265E+00  3.14159265E+00
 -0.00000000E+00 -0.00000000E+00  3.14159265E+00  3.14159265E+00  0.00000000E+00
  0.00000000E+00  3.14159265E+00  3.14159265E+00 -0.00000000E+00
ZRed-IntVec                                I   N=          54
           0           0           0           0           0           0
           0           0           0           0           0           0
           0           0           0           0           0           0
           0           0           0           0           0           0
           0           0           0           0           0           0
           0           0           0           0           0           0
           0           0           0           0           0           0
           0           0           0           0           0           0
           0           0           0           0           0           0
ZRed-FPVec                                 R   N=          54
  0.00000000E+00  0.00000000E+00  0.00000000E+00  0.00000000E+00  0.00000000E+00
  0.00000000E+00  0.00000000E+00  0.00000000E+00  0.00000000E+00  0.00000000E+00
  0.00000000E+00  0.00000000E+00  0.00000000E+00  0.00000000E+00  0.00000000E+00
  0.00000000E+00  0.00000000E+00  0.00000000E+00  0.00000000E+00  0.00000000E+00
  0.00000000E+00  0.00000000E+00  0.00000000E+00  0.00000000E+00  0.00000000E+00
  0.00000000E+00  0.00000000E+00  0.00000000E+00  0.00000000E+00  0.00000000E+00
  0.00000000E+00  0.00000000E+00  0.00000000E+00  0.00000000E+00  0.00000000E+00
  0.00000000E+00  0.00000000E+00  0.00000000E+00  0.00000000E+00  0.00000000E+00
  0.00000000E+00  0.00000000E+00  0.00000000E+00  0.00000000E+00  0.00000000E+00
  0.00000000E+00  0.00000000E+00  0.00000000E+00  0.00000000E+00  0.00000000E+00
  0.00000000E+00  0.00000000E+00  0.00000000E+00  0.00000000E+00
ZRed-Constraint1                           R   N=          54
  2.62804652E+00  2.62833602E+00  2.04925216E+00  2.62833602E+00  2.04925216E+00
  2.62833602E+00  2.04916812E+00  2.62833602E+00  2.04916812E+00  2.62804652E+00
  2.04925216E+00  2.04925216E+00  2.09449934E+00  2.09480798E+00  2.09387799E+00
  2.09449934E+00  2.09480798E+00  2.09387799E+00  2.09418663E+00  2.09449934E+00
  2.09449934E+00  2.09418663E+00  2.09449934E+00  2.09449934E+00  2.09449934E+00
  2.09387799E+00  2.09480798E+00  2.09449934E+00  2.09387799E+00  2.09480798E+00
  0.00000000E+00  3.14159265E+00  3.14159265E+00 -0.00000000E+00 -0.00000000E+00
  3.14159265E+00  3.14159265E+00  0.00000000E+00  0.00000000E+00  3.14159265E+00
  3.14159265E+00 -0.00000000E+00  0.00000000E+00  3.14159265E+00  3.14159265E+00
 -0.00000000E+00 -0.00000000E+00  3.14159265E+00  3.14159265E+00  0.00000000E+00
  0.00000000E+00  3.14159265E+00  3.14159265E+00 -0.00000000E+00
ZRed-Constraint2                           R   N=          54
  2.62671931E+00  2.62966849E+00  2.04978236E+00  2.62966849E+00  2.04978236E+00
  2.62966849E+00  2.04846312E+00  2.62966849E+00  2.04846312E+00  2.62671931E+00
  2.04978236E+00  2.04978236E+00  2.09457740E+00  2.09508819E+00  2.09351971E+00
  2.09457740E+00  2.09508819E+00  2.09351971E+00  2.09403050E+00  2.09457740E+00
  2.09457740E+00  2.09403050E+00  2.09457740E+00  2.09457740E+00  2.09457740E+00
  2.09351971E+00  2.09508819E+00  2.09457740E+00  2.09351971E+00  2.09508819E+00
  0.00000000E+00  3.14159265E+00  3.14159265E+00  0.00000000E+00  0.00000000E+00
  3.14159265E+00  3.14159265E+00  0.00000000E+00  0.00000000E+00  3.14159265E+00
  3.14159265E+00  0.00000000E+00  0.00000000E+00  3.14159265E+00  3.14159265E+00
  0.00000000E+00  0.00000000E+00  3.14159265E+00  3.14159265E+00  0.00000000E+00
  0.00000000E+00  3.14159265E+00  3.14159265E+00  0.00000000E+00
SymInf integers                            I   N=          26
           4           8           1           1           1          -1
          -1           1          -1           1          -1           1
          -1          -1          -1           1           1           1
          -1           1           1           1          -1          -1
          -1          -1
RotTr to input orientation                 R   N=          12
 -1.00000000E+00  1.19468457E-15  6.56545330E-32 -1.21531003E-30 -1.07221989E-15
  1.00000000E+00  1.19468457E-15  1.00000000E+00  1.07221989E-15  1.23313440E-16
  0.00000000E+00  0.00000000E+00
Number of contracted shells                I               66
Number of primitive shells                 I              120
Pure/Cartesian d shells                    I                0
Pure/Cartesian f shells                    I                0
Highest angular momentum                   I                2
Largest degree of contraction              I                6
Shell types                                I   N=          66
           0          -1          -1          -1          -1          -2
           0          -1          -1          -1          -1          -2
           0          -1          -1          -1          -1          -2
           0           0           0           0           1           0
          -1          -1          -1          -1          -2           0
           0           0           0           1           0          -1
          -1          -1          -1          -2           0           0
           0           0           1           0          -1          -1
          -1          -1          -2           0           0           0
           0           1           0           0           0           0
           1           0           0           0           0           1
Number of primitives per shell             I   N=          66
           6           3           1           1           1           1
           6           3           1           1           1           1
           6           3           1           1           1           1
           3           1           1           1           1           6
           3           1           1           1           1           3
           1           1           1           1           6           3
           1           1           1           1           3           1
           1           1           1           6           3           1
           1           1           1           3           1           1
           1           1           3           1           1           1
           1           3           1           1           1           1
Shell to atom map                          I   N=          66
           1           1           1           1           1           1
           2           2           2           2           2           2
           3           3           3           3           3           3
           4           4           4           4           4           5
           5           5           5           5           5           6
           6           6           6           6           7           7
           7           7           7           7           8           8
           8           8           8           9           9           9
           9           9           9          10          10          10
          10          10          11          11          11          11
          11          12          12          12          12          12
Primitive exponents                        R   N=         120
  4.56324000E+03  6.82024000E+02  1.54973000E+02  4.44553000E+01  1.30290000E+01
  1.82773000E+00  2.09642000E+01  4.80331000E+00  1.45933000E+00  4.83456000E-01
  1.45585000E-01  4.38000000E-02  6.26000000E-01  4.56324000E+03  6.82024000E+02
  1.54973000E+02  4.44553000E+01  1.30290000E+01  1.82773000E+00  2.09642000E+01
  4.80331000E+00  1.45933000E+00  4.83456000E-01  1.45585000E-01  4.38000000E-02
  6.26000000E-01  4.56324000E+03  6.82024000E+02  1.54973000E+02  4.44553000E+01
  1.30290000E+01  1.82773000E+00  2.09642000E+01  4.80331000E+00  1.45933000E+00
  4.83456000E-01  1.45585000E-01  4.38000000E-02  6.26000000E-01  3.38650000E+01
  5.09479000E+00  1.15879000E+00  3.25840000E-01  1.02741000E-01  3.60000000E-02
  7.50000000E-01  4.56324000E+03  6.82024000E+02  1.54973000E+02  4.44553000E+01
  1.30290000E+01  1.82773000E+00  2.09642000E+01  4.80331000E+00  1.45933000E+00
  4.83456000E-01  1.45585000E-01  4.38000000E-02  6.26000000E-01  3.38650000E+01
  5.09479000E+00  1.15879000E+00  3.25840000E-01  1.02741000E-01  3.60000000E-02
  7.50000000E-01  4.56324000E+03  6.82024000E+02  1.54973000E+02  4.44553000E+01
  1.30290000E+01  1.82773000E+00  2.09642000E+01  4.80331000E+00  1.45933000E+00
  4.83456000E-01  1.45585000E-01  4.38000000E-02  6.26000000E-01  3.38650000E+01
  5.09479000E+00  1.15879000E+00  3.25840000E-01  1.02741000E-01  3.60000000E-02
  7.50000000E-01  4.56324000E+03  6.82024000E+02  1.54973000E+02  4.44553000E+01
  1.30290000E+01  1.82773000E+00  2.09642000E+01  4.80331000E+00  1.45933000E+00
  4.83456000E-01  1.45585000E-01  4.38000000E-02  6.26000000E-01  3.38650000E+01
  5.09479000E+00  1.15879000E+00  3.25840000E-01  1.02741000E-01  3.60000000E-02
  7.50000000E-01  3.38650000E+01  5.09479000E+00  1.15879000E+00  3.25840000E-01
  1.02741000E-01  3.60000000E-02  7.50000000E-01  3.38650000E+01  5.09479000E+00
  1.15879000E+00  3.25840000E-01  1.02741000E-01  3.60000000E-02  7.50000000E-01
Contraction coefficients                   R   N=         120
  1.96665025E-03  1.52306019E-02  7.61269097E-02  2.60801033E-01  6.16462078E-01
  2.21006028E-01  1.14660081E-01  9.19999648E-01 -3.03068213E-03  1.00000000E+00
  1.00000000E+00  1.00000000E+00  1.00000000E+00  1.96665025E-03  1.52306019E-02
  7.61269097E-02  2.60801033E-01  6.16462078E-01  2.21006028E-01  1.14660081E-01
  9.19999648E-01 -3.03068213E-03  1.00000000E+00  1.00000000E+00  1.00000000E+00
  1.00000000E+00  1.96665025E-03  1.52306019E-02  7.61269097E-02  2.60801033E-01
  6.16462078E-01  2.21006028E-01  1.14660081E-01  9.19999648E-01 -3.03068213E-03
  1.00000000E+00  1.00000000E+00  1.00000000E+00  1.00000000E+00  2.54938145E-02
  1.90373109E-01  8.52161486E-01  1.00000000E+00  1.00000000E+00  1.00000000E+00
  1.00000000E+00  1.96665025E-03  1.52306019E-02  7.61269097E-02  2.60801033E-01
  6.16462078E-01  2.21006028E-01  1.14660081E-01  9.19999648E-01 -3.03068213E-03
  1.00000000E+00  1.00000000E+00  1.00000000E+00  1.00000000E+00  2.54938145E-02
  1.90373109E-01  8.52161486E-01  1.00000000E+00  1.00000000E+00  1.00000000E+00
  1.00000000E+00  1.96665025E-03  1.52306019E-02  7.61269097E-02  2.60801033E-01
  6.16462078E-01  2.21006028E-01  1.14660081E-01  9.19999648E-01 -3.03068213E-03
  1.00000000E+00  1.00000000E+00  1.00000000E+00  1.00000000E+00  2.54938145E-02
  1.90373109E-01  8.52161486E-01  1.00000000E+00  1.00000000E+00  1.00000000E+00
  1.00000000E+00  1.96665025E-03  1.52306019E-02  7.61269097E-02  2.60801033E-01
  6.16462078E-01  2.21006028E-01  1.14660081E-01  9.19999648E-01 -3.03068213E-03
  1.00000000E+00  1.00000000E+00  1.00000000E+00  1.00000000E+00  2.54938145E-02
  1.90373109E-01  8.52161486E-01  1.00000000E+00  1.00000000E+00  1.00000000E+00
  1.00000000E+00  2.54938145E-02  1.90373109E-01  8.52161486E-01  1.00000000E+00
  1.00000000E+00  1.00000000E+00  1.00000000E+00  2.54938145E-02  1.90373109E-01
  8.52161486E-01  1.00000000E+00  1.00000000E+00  1.00000000E+00  1.00000000E+00
P(S=P) Contraction coefficients            R   N=         120
  0.00000000E+00  0.00000000E+00  0.00000000E+00  0.00000000E+00  0.00000000E+00
  0.00000000E+00  4.02486927E-02  2.37593957E-01  8.15853851E-01  1.00000000E+00
  1.00000000E+00  1.00000000E+00  0.00000000E+00  0.00000000E+00  0.00000000E+00
  0.00000000E+00  0.00000000E+00  0.00000000E+00  0.00000000E+00  4.02486927E-02
  2.37593957E-01  8.15853851E-01  1.00000000E+00  1.00000000E+00  1.00000000E+00
  0.00000000E+00  0.00000000E+00  0.00000000E+00  0.00000000E+00  0.00000000E+00
  0.00000000E+00  0.00000000E+00  4.02486927E-02  2.37593957E-01  8.15853851E-01
  1.00000000E+00  1.00000000E+00  1.00000000E+00  0.00000000E+00  0.00000000E+00
  0.00000000E+00  0.00000000E+00  0.00000000E+00  0.00000000E+00  0.00000000E+00
  0.00000000E+00  0.00000000E+00  0.00000000E+00  0.00000000E+00  0.00000000E+00
  0.00000000E+00  0.00000000E+00  4.02486927E-02  2.37593957E-01  8.15853851E-01
  1.00000000E+00  1.00000000E+00  1.00000000E+00  0.00000000E+00  0.00000000E+00
  0.00000000E+00  0.00000000E+00  0.00000000E+00  0.00000000E+00  0.00000000E+00
  0.00000000E+00  0.00000000E+00  0.00000000E+00  0.00000000E+00  0.00000000E+00
  0.00000000E+00  0.00000000E+00  4.02486927E-02  2.37593957E-01  8.15853851E-01
  1.00000000E+00  1.00000000E+00  1.00000000E+00  0.00000000E+00  0.00000000E+00
  0.00000000E+00  0.00000000E+00  0.00000000E+00  0.00000000E+00  0.00000000E+00
  0.00000000E+00  0.00000000E+00  0.00000000E+00  0.00000000E+00  0.00000000E+00
  0.00000000E+00  0.00000000E+00  4.02486927E-02  2.37593957E-01  8.15853851E-01
  1.00000000E+00  1.00000000E+00  1.00000000E+00  0.00000000E+00  0.00000000E+00
  0.00000000E+00  0.00000000E+00  0.00000000E+00  0.00000000E+00  0.00000000E+00
  0.00000000E+00  0.00000000E+00  0.00000000E+00  0.00000000E+00  0.00000000E+00
  0.00000000E+00  0.00000000E+00  0.00000000E+00  0.00000000E+00  0.00000000E+00
  0.00000000E+00  0.00000000E+00  0.00000000E+00  0.00000000E+00  0.00000000E+00
Coordinates of each shell                  R   N=         198
  3.70104086E-31  2.27606876E+00  1.31402326E+00  3.70104086E-31  2.27606876E+00
  1.31402326E+00  3.70104086E-31  2.27606876E+00  1.31402326E+00  3.70104086E-31
  2.27606876E+00  1.31402326E+00  3.70104086E-31  2.27606876E+00  1.31402326E+00
  3.70104086E-31  2.27606876E+00  1.31402326E+00  1.60921438E-16  2.27606876E+00
 -1.31402326E+00  1.60921438E-16  2.27606876E+00 -1.31402326E+00  1.60921438E-16
  2.27606876E+00 -1.31402326E+00  1.60921438E-16  2.27606876E+00 -1.31402326E+00
  1.60921438E-16  2.27606876E+00 -1.31402326E+00  1.60921438E-16  2.27606876E+00
 -1.31402326E+00  9.41425697E-31  7.88860905E-31  2.62842852E+00  9.41425697E-31
  7.88860905E-31  2.62842852E+00  9.41425697E-31  7.88860905E-31  2.62842852E+00
  9.41425697E-31  7.88860905E-31  2.62842852E+00  9.41425697E-31  7.88860905E-31
  2.62842852E+00  9.41425697E-31  7.88860905E-31  2.62842852E+00  4.55469983E-31
  4.05035000E+00  2.33938198E+00  4.55469983E-31  4.05035000E+00  2.33938198E+00
  4.55469983E-31  4.05035000E+00  2.33938198E+00  4.55469983E-31  4.05035000E+00
  2.33938198E+00  4.55469983E-31  4.05035000E+00  2.33938198E+00  3.21889657E-16
 -3.94430453E-31 -2.62842852E+00  3.21889657E-16 -3.94430453E-31 -2.62842852E+00
  3.21889657E-16 -3.94430453E-31 -2.62842852E+00  3.21889657E-16 -3.94430453E-31
 -2.62842852E+00  3.21889657E-16 -3.94430453E-31 -2.62842852E+00  3.21889657E-16
 -3.94430453E-31 -2.62842852E+00  2.86491665E-16  4.05035000E+00 -2.33938198E+00
  2.86491665E-16  4.05035000E+00 -2.33938198E+00  2.86491665E-16  4.05035000E+00
 -2.33938198E+00  2.86491665E-16  4.05035000E+00 -2.33938198E+00  2.86491665E-16
  4.05035000E+00 -2.33938198E+00 -2.78738033E-16 -2.27606876E+00 -1.31402326E+00
 -2.78738033E-16 -2.27606876E+00 -1.31402326E+00 -2.78738033E-16 -2.27606876E+00
 -1.31402326E+00 -2.78738033E-16 -2.27606876E+00 -1.31402326E+00 -2.78738033E-16
 -2.27606876E+00 -1.31402326E+00 -2.78738033E-16 -2.27606876E+00 -1.31402326E+00
 -2.07376729E-30 -2.36658272E-30 -4.67759665E+00 -2.07376729E-30 -2.36658272E-30
 -4.67759665E+00 -2.07376729E-30 -2.36658272E-30 -4.67759665E+00 -2.07376729E-30
 -2.36658272E-30 -4.67759665E+00 -2.07376729E-30 -2.36658272E-30 -4.67759665E+00
 -2.78738033E-16 -2.27606876E+00  1.31402326E+00 -2.78738033E-16 -2.27606876E+00
  1.31402326E+00 -2.78738033E-16 -2.27606876E+00  1.31402326E+00 -2.78738033E-16
 -2.27606876E+00  1.31402326E+00 -2.78738033E-16 -2.27606876E+00  1.31402326E+00
 -2.78738033E-16 -2.27606876E+00  1.31402326E+00 -4.96024816E-16 -4.05035000E+00
 -2.33938198E+00 -4.96024816E-16 -4.05035000E+00 -2.33938198E+00 -4.96024816E-16
 -4.05035000E+00 -2.33938198E+00 -4.96024816E-16 -4.05035000E+00 -2.33938198E+00
 -4.96024816E-16 -4.05035000E+00 -2.33938198E+00 -4.96024816E-16 -4.05035000E+00
  2.33938198E+00 -4.96024816E-16 -4.05035000E+00  2.33938198E+00 -4.96024816E-16
 -4.05035000E+00  2.33938198E+00 -4.96024816E-16 -4.05035000E+00  2.33938198E+00
 -4.96024816E-16 -4.05035000E+00  2.33938198E+00 -5.72840376E-16  1.57772181E-30
  4.67759665E+00 -5.72840376E-16  1.57772181E-30  4.67759665E+00 -5.72840376E-16
  1.57772181E-30  4.67759665E+00 -5.72840376E-16  1.57772181E-30  4.67759665E+00
 -5.72840376E-16  1.57772181E-30  4.67759665E+00
Num ILSW                                   I              100
ILSW                                       I   N=         100
           0           0           0           0           2           0
           0           0           0           0        4639          -1
           5           0           0           0           2           0
           0           0           1           0           1           0
           1           0           0           0           0           0
           0           0      100000           0          -1           0
           0           0           0           0           0           0
           0           0           0           1           0           0
           0 -2000000000           1           0           0           0
           0           0         121          52           0           0
           0           0          58           0           0           0
           0           0           0           0           0           1
           0           0           0           0           0           0
           0           0           0           0           0           0
           0           0           0           0           0           0
           0           0           0           0           0           0
           0           0           0           0
Num RLSW                                   I               52
RLSW                                       R   N=          52
  1.00000000E+00  1.00000000E+00  1.00000000E+00  1.00000000E+00  1.00000000E+00
  0.00000000E+00  2.00000000E-01  2.22036000E-01  0.00000000E+00  7.77964000E-01
  0.00000000E+00  2.00000000E-01  0.00000000E+00  0.00000000E+00  1.00000000E+00
  0.00000000E+00  0.00000000E+00  1.00000000E+00  0.00000000E+00  0.00000000E+00
  0.00000000E+00  0.00000000E+00  1.00000000E+00  0.00000000E+00  0.00000000E+00
  0.00000000E+00  0.00000000E+00  1.00000000E+00  0.00000000E+00  0.00000000E+00
  0.00000000E+00  0.00000000E+00  1.00000000E+00  0.00000000E+00  0.00000000E+00
  0.00000000E+00  0.00000000E+00  0.00000000E+00  1.00000000E+00  1.00000000E+00
  0.00000000E+00  1.00000000E+00  0.00000000E+00  0.00000000E+00  0.00000000E+00
  0.00000000E+00  0.00000000E+00  0.00000000E+00  0.00000000E+00  0.00000000E+00
  0.00000000E+00  0.00000000E+00
MxBond                                     I                3
NBond                                      I   N=          12
           3           3           3           1           3           1
           3           1           3           1           1           1
IBond                                      I   N=          36
           2           3           4           1           5           6
           1           9          12           1           0           0
           2           7           8           2           0           0
           5           9          10           5           0           0
           3           7          11           7           0           0
           9           0           0           3           0           0
RBond                                      R   N=          36
  1.50000000E+00  1.50000000E+00  1.00000000E+00  1.50000000E+00  1.50000000E+00
  1.00000000E+00  1.50000000E+00  1.50000000E+00  1.00000000E+00  1.00000000E+00
  0.00000000E+00  0.00000000E+00  1.50000000E+00  1.50000000E+00  1.00000000E+00
  1.00000000E+00  0.00000000E+00  0.00000000E+00  1.50000000E+00  1.50000000E+00
  1.00000000E+00  1.00000000E+00  0.00000000E+00  0.00000000E+00  1.50000000E+00
  1.50000000E+00  1.00000000E+00  1.00000000E+00  0.00000000E+00  0.00000000E+00
  1.00000000E+00  0.00000000E+00  0.00000000E+00  1.00000000E+00  0.00000000E+00
  0.00000000E+00
Virial Ratio                               R      2.004471247911507E+00
SCF Energy                                 R     -2.322210225904973E+02
Total Energy                               R     -2.322210225904973E+02
RMS Force                                  R      6.768092121888823E-05
RMS Density                                R      7.341113754844230E-10
NImag                                      I                0
Job Status                                 I                1
Nuclear derivative order                   I                2