 Entering Gaussian System, Link 0=g16
 Initial command:
 /opt/ohpc/Taiwania3/pkg/gaussian/g16c01/g16/l1.exe "/work/an900821/Gau-73544.inp" -scrdir="/work/an900821/"
 Entering Link 1 = /opt/ohpc/Taiwania3/pkg/gaussian/g16c01/g16/l1.exe PID=     73545.
  
 Copyright (c) 1988-2019, Gaussian, Inc.  All Rights Reserved.
  
 This is part of the Gaussian(R) 16 program.  It is based on
 the Gaussian(R) 09 system (copyright 2009, Gaussian, Inc.),
 the Gaussian(R) 03 system (copyright 2003, Gaussian, Inc.),
 the Gaussian(R) 98 system (copyright 1998, Gaussian, Inc.),
 the Gaussian(R) 94 system (copyright 1995, Gaussian, Inc.),
 the Gaussian 92(TM) system (copyright 1992, Gaussian, Inc.),
 the Gaussian 90(TM) system (copyright 1990, Gaussian, Inc.),
 the Gaussian 88(TM) system (copyright 1988, Gaussian, Inc.),
 the Gaussian 86(TM) system (copyright 1986, Carnegie Mellon
 University), and the Gaussian 82(TM) system (copyright 1983,
 Carnegie Mellon University). Gaussian is a federally registered
 trademark of Gaussian, Inc.
  
 This software contains proprietary and confidential information,
 including trade secrets, belonging to Gaussian, Inc.
  
 This software is provided under written license and may be
 used, copied, transmitted, or stored only in accord with that
 written license.
  
 The following legend is applicable only to US Government
 contracts under FAR:
  
                    RESTRICTED RIGHTS LEGEND
  
 Use, reproduction and disclosure by the US Government is
 subject to restrictions as set forth in subparagraphs (a)
 and (c) of the Commercial Computer Software - Restricted
 Rights clause in FAR 52.227-19.
  
 Gaussian, Inc.
 340 Quinnipiac St., Bldg. 40, Wallingford CT 06492
  
  
 ---------------------------------------------------------------
 Warning -- This program may not be used in any manner that
 competes with the business of Gaussian, Inc. or will provide
 assistance to any competitor of Gaussian, Inc.  The licensee
 of this program is prohibited from giving any competitor of
 Gaussian, Inc. access to this program.  By using this program,
 the user acknowledges that Gaussian, Inc. is engaged in the
 business of creating and licensing software in the field of
 computational chemistry and represents and warrants to the
 licensee that it is not a competitor of Gaussian, Inc. and that
 it will not use this program in any manner prohibited above.
 ---------------------------------------------------------------
  

 Cite this work as:
 Gaussian 16, Revision C.01,
 M. J. Frisch, G. W. Trucks, H. B. Schlegel, G. E. Scuseria, 
 M. A. Robb, J. R. Cheeseman, G. Scalmani, V. Barone, 
 G. A. Petersson, H. Nakatsuji, X. Li, M. Caricato, A. V. Marenich, 
 J. Bloino, B. G. Janesko, R. Gomperts, B. Mennucci, H. P. Hratchian, 
 J. V. Ortiz, A. F. Izmaylov, J. L. Sonnenberg, D. Williams-Young, 
 F. Ding, F. Lipparini, F. Egidi, J. Goings, B. Peng, A. Petrone, 
 T. Henderson, D. Ranasinghe, V. G. Zakrzewski, J. Gao, N. Rega, 
 G. Zheng, W. Liang, M. Hada, M. Ehara, K. Toyota, R. Fukuda, 
 J. Hasegawa, M. Ishida, T. Nakajima, Y. Honda, O. Kitao, H. Nakai, 
 T. Vreven, K. Throssell, J. A. Montgomery, Jr., J. E. Peralta, 
 F. Ogliaro, M. J. Bearpark, J. J. Heyd, E. N. Brothers, K. N. Kudin, 
 V. N. Staroverov, T. A. Keith, R. Kobayashi, J. Normand, 
 K. Raghavachari, A. P. Rendell, J. C. Burant, S. S. Iyengar, 
 J. Tomasi, M. Cossi, J. M. Millam, M. Klene, C. Adamo, R. Cammi, 
 J. W. Ochterski, R. L. Martin, K. Morokuma, O. Farkas, 
 J. B. Foresman, and D. J. Fox, Gaussian, Inc., Wallingford CT, 2019.
 
 ******************************************
 Gaussian 16:  ES64L-G16RevC.01  3-Jul-2019
                15-Nov-2023 
 ******************************************
 %nprocs=2
 Will use up to    2 processors via shared memory.
 %mem = 80000MB
 ----------------------------------
 #p opt Amber(SoftFirst,print) freq
 ----------------------------------
 1/6=10,10=10,18=4000020,19=15,38=1,56=2,64=203/1,3;
 2/9=110,12=2,17=6,18=5,40=1/2;
 3/5=30,11=9,25=1,30=1,41=10300000,43=2,71=1/1;
 4/20=11,22=1001,24=3,119=11/2;
 7/44=-1/16;
 1/6=10,10=10,18=4000020,19=15,64=203/3(2);
 2/9=110/2;
 99//99;
 2/9=110/2;
 3/5=30,11=9,25=1,30=1,41=10300000,43=2,71=1/1;
 4/16=2,20=11,22=1001,24=3,119=11/2;
 7/44=-1/16;
 1/6=10,10=10,18=4000020,19=15,64=203/3(-4);
 2/9=110/2;
 99/9=10/99;
 Leave Link    1 at Wed Nov 15 15:14:46 2023, MaxMem= 10485760000 cpu:               0.9 elap:               0.8
 (Enter /opt/ohpc/Taiwania3/pkg/gaussian/g16c01/g16/l101.exe)
 -------------------
 Title Card Required
 -------------------
 Symbolic Z-matrix:
 Charge =  0 Multiplicity = 1
 C-CA                  1.        1.        0. 
 C-CA                 -0.399     1.        0. 
 C-CA                  1.7      -0.212     0. 
 H-HA                  1.541     1.937     0. 
 C-CA                 -1.099    -0.212     0. 
 H-HA                 -0.94      1.937     0. 
 C-CA                 -0.399    -1.423     0. 
 H-HA                 -2.181    -0.212     0. 
 C-CA                  1.       -1.423     0. 
 H-HA                 -0.94     -2.361     0. 
 H-HA                  1.541    -2.361     0. 
 H-HA                  2.782    -0.212     0. 
 
 ITRead=  3  3  3  3  3  3  3  3  3  3  3  3
 MicOpt=  0  0  0  0  0  0  0  0  0  0  0  0
 NAtoms=     12 NQM=        0 NQMF=       0 NMMI=      0 NMMIF=      0
                NMic=      12 NMicF=      0.
                    Isotopes and Nuclear Properties:
 (Nuclear quadrupole moments (NQMom) in fm**2, nuclear magnetic moments (NMagM)
  in nuclear magnetons)

  Atom         1           2           3           4           5           6           7           8           9          10
 IAtWgt=          12          12          12           1          12           1          12           1          12           1
 AtmWgt=  12.0000000  12.0000000  12.0000000   1.0078250  12.0000000   1.0078250  12.0000000   1.0078250  12.0000000   1.0078250
 NucSpn=           0           0           0           1           0           1           0           1           0           1
 AtZEff=  -0.0000000  -0.0000000  -0.0000000  -0.0000000  -0.0000000  -0.0000000  -0.0000000  -0.0000000  -0.0000000  -0.0000000
 NQMom=    0.0000000   0.0000000   0.0000000   0.0000000   0.0000000   0.0000000   0.0000000   0.0000000   0.0000000   0.0000000
 NMagM=    0.0000000   0.0000000   0.0000000   2.7928460   0.0000000   2.7928460   0.0000000   2.7928460   0.0000000   2.7928460
 AtZNuc=   6.0000000   6.0000000   6.0000000   1.0000000   6.0000000   1.0000000   6.0000000   1.0000000   6.0000000   1.0000000

  Atom        11          12
 IAtWgt=           1           1
 AtmWgt=   1.0078250   1.0078250
 NucSpn=           1           1
 AtZEff=  -0.0000000  -0.0000000
 NQMom=    0.0000000   0.0000000
 NMagM=    2.7928460   2.7928460
 AtZNuc=   1.0000000   1.0000000
 Generating MM parameters.
 Read MM parameter file:
 Include all MM classes

 MM sanity checks:
 All charges sum to:                0.00000000
 Charges of atoms sum to:           0.00000000
 MMInit generated parameter data with length LenPar=        2341.
 Leave Link  101 at Wed Nov 15 15:14:46 2023, MaxMem= 10485760000 cpu:               0.7 elap:               0.4
 (Enter /opt/ohpc/Taiwania3/pkg/gaussian/g16c01/g16/l103.exe)

 GradGradGradGradGradGradGradGradGradGradGradGradGradGradGradGradGradGrad
 Berny optimization.
 Initialization pass.
 No Z-matrix variables, so optimization will use Cartesian coordinates.
 Trust Radius=1.00D-01 FncErr=1.00D-07 GrdErr=1.00D-07 EigMax=2.50D+02 EigMin=1.00D-04
 Number of steps in this run=      2 maximum allowed number of steps=      2.
 GradGradGradGradGradGradGradGradGradGradGradGradGradGradGradGradGradGrad

 Leave Link  103 at Wed Nov 15 15:14:46 2023, MaxMem= 10485760000 cpu:               0.1 elap:               0.0
 (Enter /opt/ohpc/Taiwania3/pkg/gaussian/g16c01/g16/l202.exe)
                          Input orientation:                          
 ---------------------------------------------------------------------
 Center     Atomic      Atomic             Coordinates (Angstroms)
 Number     Number       Type             X           Y           Z
 ---------------------------------------------------------------------
      1          6    20001003        1.000000    1.000000    0.000000
      2          6    20001003       -0.399000    1.000000    0.000000
      3          6    20001003        1.700000   -0.212000    0.000000
      4          1    20001033        1.541000    1.937000    0.000000
      5          6    20001003       -1.099000   -0.212000    0.000000
      6          1    20001033       -0.940000    1.937000    0.000000
      7          6    20001003       -0.399000   -1.423000    0.000000
      8          1    20001033       -2.181000   -0.212000    0.000000
      9          6    20001003        1.000000   -1.423000    0.000000
     10          1    20001033       -0.940000   -2.361000    0.000000
     11          1    20001033        1.541000   -2.361000    0.000000
     12          1    20001033        2.782000   -0.212000    0.000000
 ---------------------------------------------------------------------
                    Distance matrix (angstroms):
                    1          2          3          4          5
     1  C    0.000000
     2  C    1.399000   0.000000
     3  C    1.399623   2.423787   0.000000
     4  H    1.081966   2.154430   2.154874   0.000000
     5  C    2.423787   1.399623   2.799000   3.404086   0.000000
     6  H    2.154430   1.081966   3.404086   2.481000   2.154874
     7  C    2.797880   2.423000   2.423287   3.879845   1.398757
     8  H    3.404072   2.155103   3.881000   4.297847   1.082000
     9  C    2.423000   2.797880   1.398757   3.403275   2.423287
    10  H    3.880711   3.404262   3.404086   4.962677   2.154874
    11  H    3.404262   3.880711   2.154874   4.298000   3.404086
    12  H    2.155103   3.404072   1.082000   2.481589   3.881000
                    6          7          8          9         10
     6  H    0.000000
     7  C    3.403275   0.000000
     8  H    2.481589   2.154541   0.000000
     9  C    3.879845   1.399000   3.403716   0.000000
    10  H    4.298000   1.082832   2.481589   2.154865   0.000000
    11  H    4.962677   2.154865   4.297847   1.082832   2.481000
    12  H    4.297847   3.403716   4.963000   2.154541   4.297847
                   11         12
    11  H    0.000000
    12  H    2.481589   0.000000
 Stoichiometry    C6H6
 Framework group  C2V[SGV(C6H6)]
 Deg. of freedom    11
 Full point group                 C2V     NOp   4
 Largest Abelian subgroup         C2V     NOp   4
 Largest concise Abelian subgroup C2      NOp   2
                         Standard orientation:                         
 ---------------------------------------------------------------------
 Center     Atomic      Atomic             Coordinates (Angstroms)
 Number     Number       Type             X           Y           Z
 ---------------------------------------------------------------------
      1          6    20001003        0.000000    0.699500    1.211714
      2          6    20001003       -0.000000   -0.699500    1.211714
      3          6    20001003        0.000000    1.399500   -0.000286
      4          1    20001033        0.000000    1.240500    2.148714
      5          6    20001003       -0.000000   -1.399500   -0.000286
      6          1    20001033       -0.000000   -1.240500    2.148714
      7          6    20001003        0.000000   -0.699500   -1.211286
      8          1    20001033        0.000000   -2.481500   -0.000286
      9          6    20001003        0.000000    0.699500   -1.211286
     10          1    20001033        0.000000   -1.240500   -2.149286
     11          1    20001033        0.000000    1.240500   -2.149286
     12          1    20001033        0.000000    2.481500   -0.000286
 ---------------------------------------------------------------------
 Rotational constants (GHZ):           5.6740483           5.6715081           2.8363889
 Leave Link  202 at Wed Nov 15 15:14:46 2023, MaxMem= 10485760000 cpu:               0.0 elap:               0.0
 (Enter /opt/ohpc/Taiwania3/pkg/gaussian/g16c01/g16/l301.exe)
 Standard basis: Dummy (5D, 7F)
 There are     6 symmetry adapted cartesian basis functions of A1  symmetry.
 There are     0 symmetry adapted cartesian basis functions of A2  symmetry.
 There are     0 symmetry adapted cartesian basis functions of B1  symmetry.
 There are     6 symmetry adapted cartesian basis functions of B2  symmetry.
 There are     6 symmetry adapted basis functions of A1  symmetry.
 There are     0 symmetry adapted basis functions of A2  symmetry.
 There are     0 symmetry adapted basis functions of B1  symmetry.
 There are     6 symmetry adapted basis functions of B2  symmetry.
    12 basis functions,    12 primitive gaussians,    12 cartesian basis functions
     9 alpha electrons        9 beta electrons
       nuclear repulsion energy        36.0544491996 Hartrees.
 IExCor=    0 DFT=F Ex=HF Corr=None ExCW=0 ScaHFX=  1.000000
 ScaDFX=  1.000000  1.000000  1.000000  1.000000 ScalE2=  1.000000  1.000000
 IRadAn=      5 IRanWt=     -1 IRanGd=            0 ICorTp=0 IEmpDi=  4
 NAtoms=   12 NActive=   12 NUniq=    6 SFac= 4.00D+00 NAtFMM=   60 NAOKFM=F Big=F
 Integral buffers will be    131072 words long.
 Raffenetti 1 integral format.
 Two-electron integral symmetry is turned on.
 Leave Link  301 at Wed Nov 15 15:14:47 2023, MaxMem= 10485760000 cpu:               0.1 elap:               0.1
 (Enter /opt/ohpc/Taiwania3/pkg/gaussian/g16c01/g16/l402.exe)
 AMBER calculation of energy and first derivatives.
 NRF= 0 NRA=   0 NVA=  12 HaveQM=F NVQ=       0
 Convergence limit is  0.750E-04 MaxStp= 10000 StMxLn= 3.00D-04 StpMin= 1.00D-06.
 Convergence criteria             0.00011250 0.00007500 0.00045000 0.00030000
  Step  NS  ND Rises OKQ   Scale  Max. Force  RMS Force Max. Disp.  RMS Disp.     Energy   Flag
     1   0   0   F    T  1.00D+00 0.00171487 0.00073676 0.00171487 0.00073676    0.0056802 ----
     2   0   0   F    F  1.79D-01 0.00171487 0.00073676 0.00030655 0.00013170    0.0056689 --++
     3   0   0   F    T  5.99D+00 0.00025905 0.00014227 0.00169024 0.00086846    0.0056687 ----
     4   0   0   T    F  3.89D-01 0.00025905 0.00014227 0.00065719 0.00033767    0.0056699 ----
     5   0   0   F    T  1.47D+00 0.00041972 0.00015422 0.00061709 0.00033767    0.0056678 ----
     6   0   0   F    F  6.81D-01 0.00041972 0.00015422 0.00042000 0.00022982    0.0056669 --++
     7   0   0   F    T  9.12D+00 0.00016232 0.00005498 0.00138904 0.00056750    0.0056668 -+--
     8   0   0   T    T  1.00D+00 0.00097517 0.00035152 0.00097517 0.00035152    0.0056692 ----
     9   0   0   T    F  5.00D-01 0.00097517 0.00035152 0.00048759 0.00017576    0.0056696 ---+
    10   0   0   T    F  5.00D-01 0.00097517 0.00035152 0.00024379 0.00008788    0.0056676 --++
    11   0   0   T    F  5.00D-01 0.00097517 0.00035152 0.00012190 0.00004394    0.0056671 --++
    12   0   0   T    F  5.00D-01 0.00097517 0.00035152 0.00006095 0.00002197    0.0056669 --++
    13   0   0   T    F  5.00D-01 0.00097517 0.00035152 0.00003047 0.00001098    0.0056668 --++
    14   0   0   T    F  5.00D-01 0.00097517 0.00035152 0.00001524 0.00000549    0.0056668 --++
    15   0   0   T    F  5.00D-01 0.00097517 0.00035152 0.00000762 0.00000275    0.0056668 --++
    16   0   0   T    F  5.00D-01 0.00097517 0.00035152 0.00000381 0.00000137    0.0056668 --++
    17   0   0   T    F  5.00D-01 0.00097517 0.00035152 0.00000190 0.00000069    0.0056668 --++
    18   0   0   T    F  5.00D-01 0.00097517 0.00035152 0.00000095 0.00000034    0.0056668 --++
    19   0   0   T    T  1.00D+00 0.00016322 0.00005527 0.00004931 0.00002182    0.0056668 -+++
    20   0   0   F    T  1.00D+00 0.00016487 0.00005467 0.00016486 0.00005464    0.0056667 -+++
    21   0   0   F    T  3.45D+00 0.00004184 0.00001615 0.00014463 0.00005464    0.0056667 ====
 ****************************
 MOLECULAR MECHANICS FUNCTION
 ****************************
 Atomic parameters:
 Center  VDW
      1 1.9080 0.0860000
      2 1.9080 0.0860000
      3 1.9080 0.0860000
      4 1.4590 0.0150000
      5 1.9080 0.0860000
      6 1.4590 0.0150000
      7 1.9080 0.0860000
      8 1.4590 0.0150000
      9 1.9080 0.0860000
     10 1.4590 0.0150000
     11 1.4590 0.0150000
     12 1.4590 0.0150000
 Molecular mechanics terms:
 NBDir 3 1      0      0
 HrmStr1  1- 2  366.73 1.3900
 HrmStr1  1- 3  366.73 1.3900
 HrmStr1  1- 4  349.33 1.0840
 HrmStr1  2- 5  366.73 1.3900
 HrmStr1  2- 6  349.33 1.0840
 HrmStr1  3- 9  366.73 1.3900
 HrmStr1  3-12  349.33 1.0840
 HrmStr1  5- 7  366.73 1.3900
 HrmStr1  5- 8  349.33 1.0840
 HrmStr1  7- 9  366.73 1.3900
 HrmStr1  7-10  349.33 1.0840
 HrmStr1  9-11  349.33 1.0840
 HrmBnd1  1- 2- 5  97.62 120.00
 HrmBnd1  1- 2- 6  30.56 120.00
 HrmBnd1  1- 3- 9  97.62 120.00
 HrmBnd1  1- 3-12  30.56 120.00
 HrmBnd1  2- 1- 3  97.62 120.00
 HrmBnd1  2- 1- 4  30.56 120.00
 HrmBnd1  2- 5- 7  97.62 120.00
 HrmBnd1  2- 5- 8  30.56 120.00
 HrmBnd1  3- 1- 4  30.56 120.00
 HrmBnd1  3- 9- 7  97.62 120.00
 HrmBnd1  3- 9-11  30.56 120.00
 HrmBnd1  5- 2- 6  30.56 120.00
 HrmBnd1  5- 7- 9  97.62 120.00
 HrmBnd1  5- 7-10  30.56 120.00
 HrmBnd1  7- 5- 8  30.56 120.00
 HrmBnd1  7- 9-11  30.56 120.00
 HrmBnd1  9- 3-12  30.56 120.00
 HrmBnd1  9- 7-10  30.56 120.00
 AmbTrs  3- 1- 2- 5   0 180   0   0  0.0000 14.5000  0.0000  0.0000  4.0
 AmbTrs  3- 1- 2- 6   0 180   0   0  0.0000 14.5000  0.0000  0.0000  4.0
 AmbTrs  4- 1- 2- 5   0 180   0   0  0.0000 14.5000  0.0000  0.0000  4.0
 AmbTrs  4- 1- 2- 6   0 180   0   0  0.0000 14.5000  0.0000  0.0000  4.0
 AmbTrs  2- 1- 3- 9   0 180   0   0  0.0000 14.5000  0.0000  0.0000  4.0
 AmbTrs  2- 1- 3-12   0 180   0   0  0.0000 14.5000  0.0000  0.0000  4.0
 AmbTrs  4- 1- 3- 9   0 180   0   0  0.0000 14.5000  0.0000  0.0000  4.0
 AmbTrs  4- 1- 3-12   0 180   0   0  0.0000 14.5000  0.0000  0.0000  4.0
 AmbTrs  1- 2- 5- 7   0 180   0   0  0.0000 14.5000  0.0000  0.0000  4.0
 AmbTrs  1- 2- 5- 8   0 180   0   0  0.0000 14.5000  0.0000  0.0000  4.0
 AmbTrs  6- 2- 5- 7   0 180   0   0  0.0000 14.5000  0.0000  0.0000  4.0
 AmbTrs  6- 2- 5- 8   0 180   0   0  0.0000 14.5000  0.0000  0.0000  4.0
 AmbTrs  1- 3- 9- 7   0 180   0   0  0.0000 14.5000  0.0000  0.0000  4.0
 AmbTrs  1- 3- 9-11   0 180   0   0  0.0000 14.5000  0.0000  0.0000  4.0
 AmbTrs 12- 3- 9- 7   0 180   0   0  0.0000 14.5000  0.0000  0.0000  4.0
 AmbTrs 12- 3- 9-11   0 180   0   0  0.0000 14.5000  0.0000  0.0000  4.0
 AmbTrs  2- 5- 7- 9   0 180   0   0  0.0000 14.5000  0.0000  0.0000  4.0
 AmbTrs  2- 5- 7-10   0 180   0   0  0.0000 14.5000  0.0000  0.0000  4.0
 AmbTrs  8- 5- 7- 9   0 180   0   0  0.0000 14.5000  0.0000  0.0000  4.0
 AmbTrs  8- 5- 7-10   0 180   0   0  0.0000 14.5000  0.0000  0.0000  4.0
 AmbTrs  5- 7- 9- 3   0 180   0   0  0.0000 14.5000  0.0000  0.0000  4.0
 AmbTrs  5- 7- 9-11   0 180   0   0  0.0000 14.5000  0.0000  0.0000  4.0
 AmbTrs 10- 7- 9- 3   0 180   0   0  0.0000 14.5000  0.0000  0.0000  4.0
 AmbTrs 10- 7- 9-11   0 180   0   0  0.0000 14.5000  0.0000  0.0000  4.0
 ImpTrs  2- 3- 1- 4  1.1 180.0 2.0
 ImpTrs  1- 5- 2- 6  1.1 180.0 2.0
 ImpTrs  1- 9- 3-12  1.1 180.0 2.0
 ImpTrs  2- 7- 5- 8  1.1 180.0 2.0
 ImpTrs  5- 9- 7-10  1.1 180.0 2.0
 ImpTrs  3- 7- 9-11  1.1 180.0 2.0
 NBPair  2- 1 3 1      0      0 -1.000 -1.000
 NBPair  3- 2 3 1      0      0 -1.000 -1.000
 NBPair  5- 3 3 1      0      0 -0.500 -0.167
 NBPair  6- 3 3 1      0      0 -0.500 -0.167
 NBPair  4- 2 3 1      0      0 -1.000 -1.000
 NBPair  5- 4 3 1      0      0 -0.500 -0.167
 NBPair  6- 4 3 1      0      0 -0.500 -0.167
 NBPair  3- 1 3 1      0      0 -1.000 -1.000
 NBPair  9- 2 3 1      0      0 -0.500 -0.167
 NBPair 12- 2 3 1      0      0 -0.500 -0.167
 NBPair  4- 3 3 1      0      0 -1.000 -1.000
 NBPair  9- 4 3 1      0      0 -0.500 -0.167
 NBPair 12- 4 3 1      0      0 -0.500 -0.167
 NBPair  4- 1 3 1      0      0 -1.000 -1.000
 NBPair  5- 1 3 1      0      0 -1.000 -1.000
 NBPair  6- 1 3 1      0      0 -1.000 -1.000
 NBPair  5- 2 3 1      0      0 -1.000 -1.000
 NBPair  7- 1 3 1      0      0 -0.500 -0.167
 NBPair  8- 1 3 1      0      0 -0.500 -0.167
 NBPair  6- 5 3 1      0      0 -1.000 -1.000
 NBPair  7- 6 3 1      0      0 -0.500 -0.167
 NBPair  8- 6 3 1      0      0 -0.500 -0.167
 NBPair  6- 2 3 1      0      0 -1.000 -1.000
 NBPair  9- 1 3 1      0      0 -1.000 -1.000
 NBPair 12- 1 3 1      0      0 -1.000 -1.000
 NBPair  9- 3 3 1      0      0 -1.000 -1.000
 NBPair 11- 1 3 1      0      0 -0.500 -0.167
 NBPair 12- 9 3 1      0      0 -1.000 -1.000
 NBPair 12- 7 3 1      0      0 -0.500 -0.167
 NBPair 12-11 3 1      0      0 -0.500 -0.167
 NBPair 12- 3 3 1      0      0 -1.000 -1.000
 NBPair  7- 2 3 1      0      0 -1.000 -1.000
 NBPair  8- 2 3 1      0      0 -1.000 -1.000
 NBPair  7- 5 3 1      0      0 -1.000 -1.000
 NBPair 10- 2 3 1      0      0 -0.500 -0.167
 NBPair  8- 7 3 1      0      0 -1.000 -1.000
 NBPair  9- 8 3 1      0      0 -0.500 -0.167
 NBPair 10- 8 3 1      0      0 -0.500 -0.167
 NBPair  8- 5 3 1      0      0 -1.000 -1.000
 NBPair  9- 5 3 1      0      0 -1.000 -1.000
 NBPair 10- 5 3 1      0      0 -1.000 -1.000
 NBPair  9- 7 3 1      0      0 -1.000 -1.000
 NBPair 11- 5 3 1      0      0 -0.500 -0.167
 NBPair 10- 9 3 1      0      0 -1.000 -1.000
 NBPair 10- 3 3 1      0      0 -0.500 -0.167
 NBPair 11-10 3 1      0      0 -0.500 -0.167
 NBPair 10- 7 3 1      0      0 -1.000 -1.000
 NBPair  7- 3 3 1      0      0 -1.000 -1.000
 NBPair 11- 3 3 1      0      0 -1.000 -1.000
 NBPair 11- 7 3 1      0      0 -1.000 -1.000
 NBPair 11- 9 3 1      0      0 -1.000 -1.000
 Energy per function type:
 Direct Coulomb + vdW (small)                           0.011042666
 Direct Coulomb (large)                                 0.000000000
 Direct vdW (large)                                   415.123221725
 Non-direct Coulomb + vdW (small)                      -0.005652626
 Non-direct Coulomb (large)                             0.000000000
 Non-direct vdW (large)                              -415.123221725
 Harmonic stretch I                                     0.000276639
 Harmonic bend I                                        0.000000004
 Energy per function class:
        Coulomb               0.000000000
    Vanderwaals               0.005390039
     Stretching               0.000276639
        Bending               0.000000004
 Energy=    5.666682166E-03 NIter=   0.
 Dipole moment=       0.000000       0.000000       0.000000
 Leave Link  402 at Wed Nov 15 15:14:47 2023, MaxMem= 10485760000 cpu:               0.1 elap:               0.1
 (Enter /opt/ohpc/Taiwania3/pkg/gaussian/g16c01/g16/l716.exe)
 Dipole        = 0.00000000D+00 0.00000000D+00 0.00000000D+00
 ***** Axes restored to original set *****
 -------------------------------------------------------------------
 Center     Atomic                   Forces (Hartrees/Bohr)
 Number     Number              X              Y              Z
 -------------------------------------------------------------------
      1        6           0.000013542    0.000004223    0.000000000
      2        6          -0.000013542    0.000004223    0.000000000
      3        6           0.000006016    0.000024009    0.000000000
      4        1           0.000004932   -0.000005227   -0.000000000
      5        6          -0.000006016    0.000024009    0.000000000
      6        1          -0.000004932   -0.000005227   -0.000000000
      7        6          -0.000041837    0.000007995    0.000000000
      8        1           0.000008374    0.000002513   -0.000000000
      9        6           0.000041837    0.000007995    0.000000000
     10        1          -0.000028525   -0.000033513   -0.000000000
     11        1           0.000028525   -0.000033513   -0.000000000
     12        1          -0.000008374    0.000002513   -0.000000000
 -------------------------------------------------------------------
 Cartesian Forces:  Max     0.000041837 RMS     0.000016147
 Leave Link  716 at Wed Nov 15 15:14:47 2023, MaxMem= 10485760000 cpu:               0.1 elap:               0.1
 (Enter /opt/ohpc/Taiwania3/pkg/gaussian/g16c01/g16/l103.exe)

 GradGradGradGradGradGradGradGradGradGradGradGradGradGradGradGradGradGrad
 Berny optimization.
 Search for a local minimum.
 Step number   1 out of a maximum of    2
 All quantities printed in internal units (Hartrees-Bohrs-Radians)
 RMS Force = .16147D-04 SwitMx=.10000D-02 MixMth= 2
 Mixed Optimization -- En-DIIS/RFO-DIIS
 Second derivative matrix not updated -- unit matrix used.
 ITU=  0
 RFO step:  Lambda= 0.00000000D+00 EMin= 1.00000000D+00
 ClnCor:  largest displacement from symmetrization is 1.35D-13 for atom     5.
 Linear search not attempted -- first point.
 ClnCor:  largest displacement from symmetrization is 1.99D-13 for atom    12.
 Variable       Old X    -DE/DX   Delta X   Delta X   Delta X     New X
                                 (Linear)    (Quad)   (Total)
    X1        1.88963   0.00001   0.00000   0.00001   0.00001   1.88964
    Y1        1.88906   0.00000   0.00000   0.00000   0.00000   1.88907
    Z1        0.00000   0.00000   0.00000   0.00000   0.00000   0.00000
    X2       -0.75390  -0.00001   0.00000  -0.00001  -0.00001  -0.75391
    Y2        1.88906   0.00000   0.00000   0.00000   0.00000   1.88907
    Z2       -0.00000   0.00000   0.00000  -0.00000   0.00000  -0.00000
    X3        3.21140   0.00001   0.00000   0.00001   0.00001   3.21140
    Y3       -0.40035   0.00002   0.00000   0.00002   0.00002  -0.40033
    Z3        0.00000   0.00000   0.00000   0.00000  -0.00000   0.00000
    X4        2.91390   0.00000   0.00000   0.00000   0.00000   2.91390
    Y4        3.66342  -0.00001   0.00000  -0.00001  -0.00001   3.66342
    Z4        0.00000  -0.00000   0.00000   0.00000   0.00000   0.00000
    X5       -2.07567  -0.00001   0.00000  -0.00001  -0.00001  -2.07568
    Y5       -0.40035   0.00002   0.00000   0.00002   0.00002  -0.40033
    Z5       -0.00000   0.00000   0.00000  -0.00000  -0.00000  -0.00000
    X6       -1.77817  -0.00000   0.00000  -0.00000  -0.00000  -1.77818
    Y6        3.66342  -0.00001   0.00000  -0.00001  -0.00001   3.66342
    Z6       -0.00000  -0.00000   0.00000  -0.00000   0.00000  -0.00000
    X7       -0.75381  -0.00004   0.00000  -0.00004  -0.00004  -0.75385
    Y7       -2.68962   0.00001   0.00000   0.00001   0.00001  -2.68961
    Z7       -0.00000   0.00000   0.00000  -0.00000   0.00000  -0.00000
    X8       -4.12447   0.00001   0.00000   0.00001   0.00001  -4.12446
    Y8       -0.40046   0.00000   0.00000   0.00000   0.00000  -0.40046
    Z8       -0.00000  -0.00000   0.00000   0.00000   0.00000  -0.00000
    X9        1.88953   0.00004   0.00000   0.00004   0.00004   1.88958
    Y9       -2.68962   0.00001   0.00000   0.00001   0.00001  -2.68961
    Z9        0.00000   0.00000   0.00000   0.00000   0.00000   0.00000
   X10       -1.77794  -0.00003   0.00000  -0.00003  -0.00003  -1.77796
   Y10       -4.46389  -0.00003   0.00000  -0.00003  -0.00003  -4.46393
   Z10       -0.00000  -0.00000   0.00000  -0.00000   0.00000  -0.00000
   X11        2.91366   0.00003   0.00000   0.00003   0.00003   2.91369
   Y11       -4.46389  -0.00003   0.00000  -0.00003  -0.00003  -4.46393
   Z11        0.00000  -0.00000   0.00000   0.00000   0.00000   0.00000
   X12        5.26020  -0.00001   0.00000  -0.00001  -0.00001   5.26019
   Y12       -0.40046   0.00000   0.00000   0.00000   0.00000  -0.40046
   Z12        0.00000  -0.00000   0.00000  -0.00000   0.00000   0.00000
         Item               Value     Threshold  Converged?
 Maximum Force            0.000042     0.000450     YES
 RMS     Force            0.000016     0.000300     YES
 Maximum Displacement     0.000042     0.001800     YES
 RMS     Displacement     0.000016     0.001200     YES
 Predicted change in Energy=-4.693043D-09
 Optimization completed.
    -- Stationary point found.
 Largest change from initial coordinates is atom    6       0.002 Angstoms.
 GradGradGradGradGradGradGradGradGradGradGradGradGradGradGradGradGradGrad

 Leave Link  103 at Wed Nov 15 15:14:47 2023, MaxMem= 10485760000 cpu:               0.0 elap:               0.0
 (Enter /opt/ohpc/Taiwania3/pkg/gaussian/g16c01/g16/l202.exe)
                          Input orientation:                          
 ---------------------------------------------------------------------
 Center     Atomic      Atomic             Coordinates (Angstroms)
 Number     Number       Type             X           Y           Z
 ---------------------------------------------------------------------
      1          6    20001003        0.999947    0.999648    0.000000
      2          6    20001003       -0.398947    0.999648   -0.000000
      3          6    20001003        1.699399   -0.211857    0.000000
      4          1    20001033        1.541967    1.938600    0.000000
      5          6    20001003       -1.098399   -0.211857   -0.000000
      6          1    20001033       -0.940967    1.938600   -0.000000
      7          6    20001003       -0.398898   -1.423284   -0.000000
      8          1    20001033       -2.182576   -0.211916   -0.000000
      9          6    20001003        0.999898   -1.423284    0.000000
     10          1    20001033       -0.940843   -2.362191   -0.000000
     11          1    20001033        1.541843   -2.362191    0.000000
     12          1    20001033        2.783576   -0.211916    0.000000
 ---------------------------------------------------------------------
                    Distance matrix (angstroms):
                    1          2          3          4          5
     1  C    0.000000
     2  C    1.398893   0.000000
     3  C    1.398921   2.422973   0.000000
     4  H    1.084166   2.156102   2.156212   0.000000
     5  C    2.422973   1.398921   2.797798   3.405290   0.000000
     6  H    2.156102   1.084166   3.405290   2.482934   2.156212
     7  C    2.797744   2.422933   2.422892   3.881910   1.398877
     8  H    3.405340   2.156205   3.881975   4.300807   1.084177
     9  C    2.422933   2.797744   1.398877   3.405305   2.422892
    10  H    3.881833   3.405234   3.405116   4.966000   2.156098
    11  H    3.405234   3.881833   2.156098   4.300791   3.405116
    12  H    2.156205   3.405340   1.084177   2.483206   3.881975
                    6          7          8          9         10
     6  H    0.000000
     7  C    3.405305   0.000000
     8  H    2.483206   2.156135   0.000000
     9  C    3.881910   1.398796   3.405225   0.000000
    10  H    4.300791   1.084090   2.483059   2.155927   0.000000
    11  H    4.966000   2.155927   4.300579   1.084090   2.482686
    12  H    4.300807   3.405225   4.966152   2.156135   4.300579
                   11         12
    11  H    0.000000
    12  H    2.483059   0.000000
 Stoichiometry    C6H6
 Framework group  C2V[SGV(C6H6)]
 Deg. of freedom    11
 Full point group                 C2V     NOp   4
 RotChk:  IX=0 Diff= 4.64D-16
 Largest Abelian subgroup         C2V     NOp   4
 Largest concise Abelian subgroup C2      NOp   2
                         Standard orientation:                         
 ---------------------------------------------------------------------
 Center     Atomic      Atomic             Coordinates (Angstroms)
 Number     Number       Type             X           Y           Z
 ---------------------------------------------------------------------
      1          6    20001003        0.000000    0.699447    1.211480
      2          6    20001003       -0.000000   -0.699447    1.211480
      3          6    20001003        0.000000    1.398899   -0.000026
      4          1    20001033        0.000000    1.241467    2.150432
      5          6    20001003       -0.000000   -1.398899   -0.000026
      6          1    20001033       -0.000000   -1.241467    2.150432
      7          6    20001003        0.000000   -0.699398   -1.211453
      8          1    20001033        0.000000   -2.483076   -0.000084
      9          6    20001003        0.000000    0.699398   -1.211453
     10          1    20001033        0.000000   -1.241343   -2.150359
     11          1    20001033        0.000000    1.241343   -2.150359
     12          1    20001033        0.000000    2.483076   -0.000084
 ---------------------------------------------------------------------
 Rotational constants (GHZ):           5.6728288           5.6727580           2.8363967
 Leave Link  202 at Wed Nov 15 15:14:47 2023, MaxMem= 10485760000 cpu:               0.0 elap:               0.0
 (Enter /opt/ohpc/Taiwania3/pkg/gaussian/g16c01/g16/l9999.exe)
 Unable to Open any file for archive entry.
 1\1\GINC-CPN3051\FOpt\AMBER\ZDO\C6H6\AN900821\15-Nov-2023\0\\#p opt Am
 ber(SoftFirst,print) freq\\Title Card Required\\0,1\C,0.9999467095,0.9
 996483095,0.\C,-0.3989467095,0.9996483095,0.\C,1.6993989961,-0.2118571
 929,0.\H,1.541967132,1.9386000978,0.\C,-1.0983989961,-0.2118571929,0.\
 H,-0.940967132,1.9386000978,0.\C,-0.3988981625,-1.4232842004,0.\H,-2.1
 825759557,-0.2119160349,0.\C,0.9998981625,-1.4232842004,0.\H,-0.940843
 2149,-2.3621909791,0.\H,1.5418432149,-2.3621909791,0.\H,2.7835759557,-
 0.2119160349,0.\\Version=ES64L-G16RevC.01\HF=0.0056667\RMSD=0.000e+00\
 RMSF=1.615e-05\Dipole=0.,0.,0.\PG=C02V [SGV(C6H6)]\\@
 The archive entry for this job was punched.


 IT'S WHAT YOU LEARN AFTER YOU KNOW IT ALL
 THAT COUNTS.
 Leave Link 9999 at Wed Nov 15 15:14:47 2023, MaxMem= 10485760000 cpu:               0.1 elap:               0.0
 Job cpu time:       0 days  0 hours  0 minutes  2.2 seconds.
 Elapsed time:       0 days  0 hours  0 minutes  1.6 seconds.
 File lengths (MBytes):  RWF=    272 Int=      0 D2E=      0 Chk=     32 Scr=     32
 Normal termination of Gaussian 16 at Wed Nov 15 15:14:47 2023.
 (Enter /opt/ohpc/Taiwania3/pkg/gaussian/g16c01/g16/l1.exe)
 Link1:  Proceeding to internal job step number  2.
 --------------------------------------------------------------
 #P Geom=AllCheck Guess=TCheck SCRF=Check GenChk AMBER/ZDO Freq
 --------------------------------------------------------------
 1/10=4,18=10,29=7,30=1,38=1,40=1,56=2,64=203/1,3;
 2/12=2,40=1/2;
 3/5=30,11=9,14=-4,25=1,30=1,41=10300000,43=2,70=40000002,71=2,116=-2,140=1/1;
 4/20=11,22=2,24=3/2;
 7/8=1,25=1,44=-1/16;
 1/10=4,18=10,30=1,64=203/3;
 99//99;
 Leave Link    1 at Wed Nov 15 15:14:47 2023, MaxMem= 10485760000 cpu:               0.0 elap:               0.0
 (Enter /opt/ohpc/Taiwania3/pkg/gaussian/g16c01/g16/l101.exe)
 MM symbol table in CpMMST:
 There are    3 entries in the MM symbol table.
 Symbol    1 IAtTpT=           0 IUser=           0 String=*
 Symbol    2 IAtTpT=    20001003 IUser=           0 String=CA
 Symbol    3 IAtTpT=    20001033 IUser=           0 String=HA
 Structure from the checkpoint file:  "/work/an900821/Gau-73545.chk"
 -------------------
 Title Card Required
 -------------------
 Charge =  0 Multiplicity = 1
 Redundant internal coordinates found in file.  (old form).
 C,0,0.9999467095,0.9996483095,0.
 C,0,-0.3989467095,0.9996483095,0.
 C,0,1.6993989961,-0.2118571929,0.
 H,0,1.541967132,1.9386000978,0.
 C,0,-1.0983989961,-0.2118571929,0.
 H,0,-0.940967132,1.9386000978,0.
 C,0,-0.3988981625,-1.4232842004,0.
 H,0,-2.1825759557,-0.2119160349,0.
 C,0,0.9998981625,-1.4232842004,0.
 H,0,-0.9408432149,-2.3621909791,0.
 H,0,1.5418432149,-2.3621909791,0.
 H,0,2.7835759557,-0.2119160349,0.
 Recover connectivity data from disk.
 ITRead=  0  0  0  0  0  0  0  0  0  0  0  0
 MicOpt= -1 -1 -1 -1 -1 -1 -1 -1 -1 -1 -1 -1
 NAtoms=     12 NQM=       12 NQMF=       0 NMMI=      0 NMMIF=      0
                NMic=       0 NMicF=      0.
                    Isotopes and Nuclear Properties:
 (Nuclear quadrupole moments (NQMom) in fm**2, nuclear magnetic moments (NMagM)
  in nuclear magnetons)

  Atom         1           2           3           4           5           6           7           8           9          10
 IAtWgt=          12          12          12           1          12           1          12           1          12           1
 AtmWgt=  12.0000000  12.0000000  12.0000000   1.0078250  12.0000000   1.0078250  12.0000000   1.0078250  12.0000000   1.0078250
 NucSpn=           0           0           0           1           0           1           0           1           0           1
 AtZEff=   3.9000000   3.9000000   3.9000000   1.0000000   3.9000000   1.0000000   3.9000000   1.0000000   3.9000000   1.0000000
 NQMom=    0.0000000   0.0000000   0.0000000   0.0000000   0.0000000   0.0000000   0.0000000   0.0000000   0.0000000   0.0000000
 NMagM=    0.0000000   0.0000000   0.0000000   2.7928460   0.0000000   2.7928460   0.0000000   2.7928460   0.0000000   2.7928460
 AtZNuc=   6.0000000   6.0000000   6.0000000   1.0000000   6.0000000   1.0000000   6.0000000   1.0000000   6.0000000   1.0000000

  Atom        11          12
 IAtWgt=           1           1
 AtmWgt=   1.0078250   1.0078250
 NucSpn=           1           1
 AtZEff=   1.0000000   1.0000000
 NQMom=    0.0000000   0.0000000
 NMagM=    2.7928460   2.7928460
 AtZNuc=   1.0000000   1.0000000
 Generating MM parameters.
 Retrieving read-in MM parameters from chk file.
 Include all MM classes

 MM sanity checks:
 All charges sum to:                0.00000000
 Charges of atoms sum to:           0.00000000
 MMInit generated parameter data with length LenPar=        2341.
 Leave Link  101 at Wed Nov 15 15:14:47 2023, MaxMem= 10485760000 cpu:               0.6 elap:               0.3
 (Enter /opt/ohpc/Taiwania3/pkg/gaussian/g16c01/g16/l103.exe)

 GradGradGradGradGradGradGradGradGradGradGradGradGradGradGradGradGradGrad
 Berny optimization.
 Initialization pass.
 Trust Radius=3.00D-01 FncErr=1.00D-07 GrdErr=1.00D-07 EigMax=2.50D+02 EigMin=1.00D-04
 Number of steps in this run=      2 maximum allowed number of steps=      2.
 GradGradGradGradGradGradGradGradGradGradGradGradGradGradGradGradGradGrad

 Leave Link  103 at Wed Nov 15 15:14:47 2023, MaxMem= 10485760000 cpu:               0.1 elap:               0.0
 (Enter /opt/ohpc/Taiwania3/pkg/gaussian/g16c01/g16/l202.exe)
                          Input orientation:                          
 ---------------------------------------------------------------------
 Center     Atomic      Atomic             Coordinates (Angstroms)
 Number     Number       Type             X           Y           Z
 ---------------------------------------------------------------------
      1          6    20001003        0.999947    0.999648   -0.000000
      2          6    20001003       -0.398947    0.999648   -0.000000
      3          6    20001003        1.699399   -0.211857    0.000000
      4          1    20001033        1.541967    1.938600   -0.000000
      5          6    20001003       -1.098399   -0.211857   -0.000000
      6          1    20001033       -0.940967    1.938600   -0.000000
      7          6    20001003       -0.398898   -1.423284   -0.000000
      8          1    20001033       -2.182576   -0.211916   -0.000000
      9          6    20001003        0.999898   -1.423284    0.000000
     10          1    20001033       -0.940843   -2.362191    0.000000
     11          1    20001033        1.541843   -2.362191    0.000000
     12          1    20001033        2.783576   -0.211916    0.000000
 ---------------------------------------------------------------------
                    Distance matrix (angstroms):
                    1          2          3          4          5
     1  C    0.000000
     2  C    1.398893   0.000000
     3  C    1.398921   2.422973   0.000000
     4  H    1.084166   2.156102   2.156212   0.000000
     5  C    2.422973   1.398921   2.797798   3.405290   0.000000
     6  H    2.156102   1.084166   3.405290   2.482934   2.156212
     7  C    2.797744   2.422933   2.422892   3.881910   1.398877
     8  H    3.405340   2.156205   3.881975   4.300807   1.084177
     9  C    2.422933   2.797744   1.398877   3.405305   2.422892
    10  H    3.881833   3.405234   3.405116   4.966000   2.156098
    11  H    3.405234   3.881833   2.156098   4.300791   3.405116
    12  H    2.156205   3.405340   1.084177   2.483206   3.881975
                    6          7          8          9         10
     6  H    0.000000
     7  C    3.405305   0.000000
     8  H    2.483206   2.156135   0.000000
     9  C    3.881910   1.398796   3.405225   0.000000
    10  H    4.300791   1.084090   2.483059   2.155927   0.000000
    11  H    4.966000   2.155927   4.300579   1.084090   2.482686
    12  H    4.300807   3.405225   4.966152   2.156135   4.300579
                   11         12
    11  H    0.000000
    12  H    2.483059   0.000000
 Stoichiometry    C6H6
 Framework group  C2V[SGV(C6H6)]
 Deg. of freedom    11
 Full point group                 C2V     NOp   4
 RotChk:  IX=0 Diff= 1.83D-16
 Largest Abelian subgroup         C2V     NOp   4
 Largest concise Abelian subgroup C2      NOp   2
                         Standard orientation:                         
 ---------------------------------------------------------------------
 Center     Atomic      Atomic             Coordinates (Angstroms)
 Number     Number       Type             X           Y           Z
 ---------------------------------------------------------------------
      1          6    20001003        0.000000    0.699447    1.211480
      2          6    20001003       -0.000000   -0.699447    1.211480
      3          6    20001003        0.000000    1.398899   -0.000026
      4          1    20001033        0.000000    1.241467    2.150432
      5          6    20001003       -0.000000   -1.398899   -0.000026
      6          1    20001033       -0.000000   -1.241467    2.150432
      7          6    20001003       -0.000000   -0.699398   -1.211453
      8          1    20001033       -0.000000   -2.483076   -0.000084
      9          6    20001003        0.000000    0.699398   -1.211453
     10          1    20001033       -0.000000   -1.241343   -2.150359
     11          1    20001033        0.000000    1.241343   -2.150359
     12          1    20001033        0.000000    2.483076   -0.000084
 ---------------------------------------------------------------------
 Rotational constants (GHZ):           5.6728288           5.6727580           2.8363967
 Leave Link  202 at Wed Nov 15 15:14:47 2023, MaxMem= 10485760000 cpu:               0.0 elap:               0.0
 (Enter /opt/ohpc/Taiwania3/pkg/gaussian/g16c01/g16/l301.exe)
 Standard basis: Dummy (5D, 7F)
 There are     6 symmetry adapted cartesian basis functions of A1  symmetry.
 There are     0 symmetry adapted cartesian basis functions of A2  symmetry.
 There are     0 symmetry adapted cartesian basis functions of B1  symmetry.
 There are     6 symmetry adapted cartesian basis functions of B2  symmetry.
 There are     6 symmetry adapted basis functions of A1  symmetry.
 There are     0 symmetry adapted basis functions of A2  symmetry.
 There are     0 symmetry adapted basis functions of B1  symmetry.
 There are     6 symmetry adapted basis functions of B2  symmetry.
    12 basis functions,    12 primitive gaussians,    12 cartesian basis functions
     9 alpha electrons        9 beta electrons
       nuclear repulsion energy        36.0399676462 Hartrees.
 IExCor=    0 DFT=F Ex=HF Corr=None ExCW=0 ScaHFX=  1.000000
 ScaDFX=  1.000000  1.000000  1.000000  1.000000 ScalE2=  1.000000  1.000000
 IRadAn=      5 IRanWt=     -1 IRanGd=            0 ICorTp=0 IEmpDi=  4
 NAtoms=   12 NActive=   12 NUniq=    6 SFac= 4.00D+00 NAtFMM=   60 NAOKFM=F Big=F
 Integral buffers will be    131072 words long.
 Raffenetti 1 integral format.
 Two-electron integral symmetry is turned on.
 Leave Link  301 at Wed Nov 15 15:14:47 2023, MaxMem= 10485760000 cpu:               0.1 elap:               0.1
 (Enter /opt/ohpc/Taiwania3/pkg/gaussian/g16c01/g16/l402.exe)
 AMBER calculation of energy, first and second derivatives.
 Energy per function type:
 Direct Coulomb + vdW (small)                           0.011042666
 Direct Coulomb (large)                                 0.000000000
 Direct vdW (large)                                   415.123221725
 Non-direct Coulomb + vdW (small)                      -0.005652626
 Non-direct Coulomb (large)                             0.000000000
 Non-direct vdW (large)                              -415.123221725
 Harmonic stretch I                                     0.000276639
 Harmonic bend I                                        0.000000004
 Energy per function class:
        Coulomb               0.000000000
    Vanderwaals               0.005390039
     Stretching               0.000276639
        Bending               0.000000004
 Energy=    5.666682166E-03 NIter=   0.
 Dipole moment=       0.000000       0.000000       0.000000
 Leave Link  402 at Wed Nov 15 15:14:47 2023, MaxMem= 10485760000 cpu:               0.1 elap:               0.0
 (Enter /opt/ohpc/Taiwania3/pkg/gaussian/g16c01/g16/l716.exe)
 Dipole        = 0.00000000D+00 0.00000000D+00 0.00000000D+00
 Full mass-weighted force constant matrix:
 Low frequencies ---   -4.6174   -4.4148   -4.2036   -0.0005    0.0004    0.0007
 Low frequencies ---  415.3121  415.3816  667.6641
 Diagonal vibrational polarizability:
        0.0000000       0.0000000       0.0000000
 Harmonic frequencies (cm**-1), IR intensities (KM/Mole), Raman scattering
 activities (A**4/AMU), depolarization ratios for plane and unpolarized
 incident light, reduced masses (AMU), force constants (mDyne/A),
 and normal coordinates:
                      1                      2                      3
                     A2                     B1                     A2
 Frequencies --    415.3121               415.3816               667.6641
 Red. masses --      3.4028                 3.4030                 3.5518
 Frc consts  --      0.3458                 0.3459                 0.9329
 IR Inten    --      0.0000                 0.0000                 0.0000
  Atom  AN      X      Y      Z        X      Y      Z        X      Y      Z
     1   6     0.23  -0.00   0.00    -0.13   0.00  -0.00     0.20   0.00  -0.00
     2   6    -0.23  -0.00   0.00    -0.13  -0.00   0.00    -0.20   0.00  -0.00
     3   6     0.00  -0.00  -0.00     0.27   0.00   0.00    -0.20   0.00   0.00
     4   1     0.44   0.00  -0.00    -0.26  -0.00   0.00     0.36   0.00   0.00
     5   6    -0.00   0.00   0.00     0.27   0.00  -0.00     0.20  -0.00  -0.00
     6   1    -0.44  -0.00   0.00    -0.26  -0.00  -0.00    -0.36   0.00  -0.00
     7   6     0.23   0.00   0.00    -0.13  -0.00  -0.00    -0.20  -0.00   0.00
     8   1    -0.00   0.00  -0.00     0.51  -0.00  -0.00     0.36  -0.00  -0.00
     9   6    -0.23   0.00  -0.00    -0.13  -0.00   0.00     0.20  -0.00   0.00
    10   1     0.44  -0.00   0.00    -0.26  -0.00  -0.00    -0.36  -0.00  -0.00
    11   1    -0.44   0.00  -0.00    -0.26  -0.00   0.00     0.36  -0.00   0.00
    12   1     0.00  -0.00   0.00     0.51   0.00  -0.00    -0.36   0.00   0.00
                      4                      5                      6
                     A1                     B2                     B1
 Frequencies --    679.7308               679.7400               694.1529
 Red. masses --      6.9198                 6.9198                 1.0848
 Frc consts  --      1.8837                 1.8838                 0.3080
 IR Inten    --      0.0000                 0.0000                 0.0000
  Atom  AN      X      Y      Z        X      Y      Z        X      Y      Z
     1   6    -0.00   0.09  -0.25    -0.00   0.25   0.21    -0.03  -0.00  -0.00
     2   6     0.00  -0.09  -0.25     0.00   0.25  -0.21    -0.03  -0.00   0.00
     3   6     0.00   0.35  -0.00     0.00  -0.00   0.23    -0.03  -0.00  -0.00
     4   1    -0.00  -0.01  -0.21    -0.00   0.21   0.25     0.41  -0.00   0.00
     5   6    -0.00  -0.35  -0.00    -0.00  -0.00  -0.23    -0.03   0.00   0.00
     6   1     0.00   0.01  -0.21     0.00   0.21  -0.25     0.41  -0.00   0.00
     7   6     0.00  -0.09   0.25     0.00  -0.25  -0.21    -0.03   0.00   0.00
     8   1    -0.00  -0.38  -0.00     0.00  -0.00  -0.11     0.41   0.00  -0.00
     9   6    -0.00   0.09   0.25    -0.00  -0.25   0.21    -0.03   0.00  -0.00
    10   1     0.00   0.01   0.21     0.00  -0.21  -0.25     0.41   0.00   0.00
    11   1    -0.00  -0.01   0.21    -0.00  -0.21   0.25     0.41  -0.00  -0.00
    12   1     0.00   0.38  -0.00     0.00  -0.00   0.11     0.41  -0.00  -0.00
                      7                      8                      9
                     A1                     B1                     A2
 Frequencies --    848.5959               896.9830               897.0826
 Red. masses --      6.0094                 1.2468                 1.2468
 Frc consts  --      2.5496                 0.5910                 0.5912
 IR Inten    --      0.0000                 0.0000                 0.0000
  Atom  AN      X      Y      Z        X      Y      Z        X      Y      Z
     1   6    -0.00   0.14   0.24    -0.07   0.00   0.00     0.04  -0.00  -0.00
     2   6    -0.00  -0.14   0.24    -0.07  -0.00   0.00    -0.04   0.00  -0.00
     3   6     0.00   0.28   0.00    -0.00   0.00  -0.00     0.09  -0.00   0.00
     4   1     0.00   0.15   0.26     0.49   0.00   0.00    -0.29  -0.00  -0.00
     5   6    -0.00  -0.28   0.00    -0.00   0.00  -0.00    -0.09  -0.00   0.00
     6   1     0.00  -0.15   0.26     0.49  -0.00  -0.00     0.29   0.00   0.00
     7   6    -0.00  -0.14  -0.24     0.07   0.00   0.00    -0.04  -0.00  -0.00
     8   1     0.00  -0.30   0.00     0.00   0.00  -0.00     0.57  -0.00   0.00
     9   6     0.00   0.14  -0.24     0.07  -0.00   0.00     0.04   0.00  -0.00
    10   1     0.00  -0.15  -0.26    -0.49   0.00   0.00     0.29  -0.00  -0.00
    11   1    -0.00   0.15  -0.26    -0.49  -0.00  -0.00    -0.29   0.00   0.00
    12   1    -0.00   0.30   0.00     0.00   0.00  -0.00    -0.57  -0.00   0.00
                     10                     11                     12
                     B2                     A1                     A1
 Frequencies --    897.7798               897.8193              1040.2612
 Red. masses --      1.6359                 1.6361                 1.1289
 Frc consts  --      0.7769                 0.7770                 0.7197
 IR Inten    --      0.0000                 0.0000                 0.0000
  Atom  AN      X      Y      Z        X      Y      Z        X      Y      Z
     1   6     0.00  -0.03   0.08    -0.00  -0.08  -0.07    -0.00  -0.04   0.00
     2   6     0.00  -0.03  -0.08    -0.00   0.08  -0.07     0.00   0.04   0.00
     3   6     0.00   0.11   0.00    -0.00  -0.00   0.08    -0.00   0.04   0.00
     4   1    -0.00  -0.38   0.29     0.00  -0.29   0.04     0.00  -0.44   0.23
     5   6    -0.00   0.11  -0.00     0.00   0.00   0.08     0.00  -0.04   0.00
     6   1    -0.00  -0.38  -0.29     0.00   0.29   0.04    -0.00   0.44   0.23
     7   6    -0.00  -0.03   0.08     0.00  -0.08  -0.07     0.00   0.04  -0.00
     8   1     0.00   0.13  -0.00    -0.00   0.00   0.55    -0.00  -0.05   0.00
     9   6    -0.00  -0.03  -0.08     0.00   0.08  -0.07     0.00  -0.04  -0.00
    10   1     0.00  -0.38   0.29    -0.00  -0.29   0.04    -0.00   0.44  -0.23
    11   1     0.00  -0.38  -0.29    -0.00   0.29   0.04    -0.00  -0.44  -0.23
    12   1    -0.00   0.13   0.00     0.00  -0.00   0.55     0.00   0.05   0.00
                     13                     14                     15
                     B2                     A1                     B2
 Frequencies --   1040.3088              1069.5179              1118.3561
 Red. masses --      1.1289                 1.0987                 5.6001
 Frc consts  --      0.7198                 0.7405                 4.1267
 IR Inten    --      0.0000                 0.0000                 0.0000
  Atom  AN      X      Y      Z        X      Y      Z        X      Y      Z
     1   6    -0.00  -0.00   0.04    -0.00   0.03  -0.02    -0.00  -0.13  -0.23
     2   6     0.00  -0.00  -0.04     0.00  -0.03  -0.02     0.00  -0.13   0.23
     3   6    -0.00   0.00  -0.04    -0.00  -0.00   0.04    -0.00   0.26  -0.00
     4   1     0.00  -0.23   0.18     0.00   0.35  -0.20     0.00  -0.16  -0.27
     5   6     0.00   0.00   0.04     0.00   0.00   0.04    -0.00   0.26   0.00
     6   1    -0.00  -0.23  -0.18    -0.00  -0.35  -0.20    -0.00  -0.16   0.27
     7   6     0.00   0.00  -0.04    -0.00   0.03  -0.02    -0.00  -0.13  -0.23
     8   1    -0.00   0.00   0.57    -0.00   0.00   0.41    -0.00   0.31   0.00
     9   6     0.00   0.00   0.04     0.00  -0.03  -0.02     0.00  -0.13   0.23
    10   1    -0.00   0.23  -0.18     0.00   0.35  -0.20     0.00  -0.16  -0.27
    11   1    -0.00   0.23   0.18    -0.00  -0.35  -0.20    -0.00  -0.16   0.27
    12   1     0.00   0.00  -0.57     0.00  -0.00   0.41     0.00   0.31  -0.00
                     16                     17                     18
                     A2                     B1                     A2
 Frequencies --   1129.1564              1129.2670              1193.7144
 Red. masses --      1.2793                 1.2792                 1.2594
 Frc consts  --      0.9610                 0.9612                 1.0573
 IR Inten    --      0.0000                 0.0000                 0.0000
  Atom  AN      X      Y      Z        X      Y      Z        X      Y      Z
     1   6    -0.08   0.00   0.00     0.05  -0.00   0.00    -0.06  -0.00  -0.00
     2   6     0.08   0.00  -0.00     0.05   0.00  -0.00     0.06  -0.00   0.00
     3   6    -0.00  -0.00   0.00    -0.09  -0.00  -0.00     0.06   0.00   0.00
     4   1     0.49   0.00   0.00    -0.29  -0.00   0.00     0.40   0.00  -0.00
     5   6     0.00  -0.00  -0.00    -0.09  -0.00   0.00    -0.06   0.00   0.00
     6   1    -0.49   0.00  -0.00    -0.29   0.00  -0.00    -0.40  -0.00   0.00
     7   6    -0.08   0.00   0.00     0.05   0.00   0.00     0.06  -0.00  -0.00
     8   1    -0.00  -0.00  -0.00     0.57  -0.00   0.00     0.40   0.00   0.00
     9   6     0.08   0.00  -0.00     0.05   0.00  -0.00    -0.06  -0.00   0.00
    10   1     0.49  -0.00   0.00    -0.28   0.00  -0.00    -0.40   0.00  -0.00
    11   1    -0.49   0.00  -0.00    -0.28   0.00  -0.00     0.40  -0.00   0.00
    12   1     0.00  -0.00   0.00     0.57  -0.00  -0.00    -0.40   0.00   0.00
                     19                     20                     21
                     B2                     B2                     A1
 Frequencies --   1240.9085              1381.3314              1381.3814
 Red. masses --      1.2468                 2.0973                 2.0970
 Frc consts  --      1.1312                 2.3578                 2.3576
 IR Inten    --      0.0000                 0.0000                 0.0000
  Atom  AN      X      Y      Z        X      Y      Z        X      Y      Z
     1   6    -0.00  -0.05   0.03    -0.00  -0.09   0.11    -0.00   0.11   0.03
     2   6     0.00  -0.05  -0.03    -0.00  -0.09  -0.11    -0.00  -0.11   0.03
     3   6    -0.00  -0.00   0.06    -0.00   0.10   0.00    -0.00   0.00  -0.15
     4   1     0.00   0.35  -0.20     0.00   0.43  -0.18     0.00  -0.18   0.23
     5   6     0.00  -0.00  -0.06     0.00   0.10  -0.00     0.00  -0.00  -0.15
     6   1    -0.00   0.35   0.20     0.00   0.43   0.18     0.00   0.18   0.23
     7   6    -0.00   0.05  -0.03     0.00  -0.09   0.11     0.00   0.11   0.03
     8   1     0.00  -0.00   0.40    -0.00   0.13   0.00    -0.00  -0.00   0.53
     9   6     0.00   0.05   0.03     0.00  -0.09  -0.11     0.00  -0.11   0.03
    10   1     0.00  -0.35   0.20    -0.00   0.43  -0.18     0.00  -0.18   0.23
    11   1    -0.00  -0.35  -0.20    -0.00   0.43   0.18    -0.00   0.18   0.23
    12   1     0.00  -0.00  -0.40     0.00   0.13  -0.00     0.00   0.00   0.53
                     22                     23                     24
                     A1                     A1                     B2
 Frequencies --   1541.3903              1581.7658              1581.7709
 Red. masses --      6.0455                 4.5323                 4.5315
 Frc consts  --      8.4626                 6.6811                 6.6801
 IR Inten    --      0.0000                 0.0000                 0.0000
  Atom  AN      X      Y      Z        X      Y      Z        X      Y      Z
     1   6     0.00   0.24  -0.14    -0.00   0.25  -0.06    -0.00   0.06  -0.19
     2   6    -0.00  -0.24  -0.14    -0.00  -0.25  -0.06    -0.00   0.06   0.19
     3   6    -0.00   0.00   0.28    -0.00  -0.16   0.00    -0.00  -0.00   0.29
     4   1    -0.00  -0.26   0.15     0.00  -0.26   0.28     0.00  -0.28  -0.07
     5   6     0.00  -0.00   0.28     0.00   0.16   0.00     0.00  -0.00  -0.29
     6   1     0.00   0.26   0.15     0.00   0.26   0.28     0.00  -0.28   0.07
     7   6    -0.00   0.24  -0.14     0.00  -0.25   0.06     0.00  -0.06   0.19
     8   1    -0.00  -0.00  -0.30    -0.00   0.23  -0.00    -0.00  -0.00   0.42
     9   6     0.00  -0.24  -0.14     0.00   0.25   0.06    -0.00  -0.06  -0.19
    10   1     0.00  -0.26   0.15    -0.00   0.26  -0.28    -0.00   0.28   0.07
    11   1    -0.00   0.26   0.15    -0.00  -0.26  -0.28     0.00   0.28  -0.07
    12   1    -0.00   0.00  -0.30     0.00  -0.23  -0.00     0.00  -0.00  -0.42
                     25                     26                     27
                     B2                     A1                     A1
 Frequencies --   2988.7465              2988.7468              2989.9152
 Red. masses --      1.0997                 1.0997                 1.0999
 Frc consts  --      5.7879                 5.7879                 5.7933
 IR Inten    --      0.0000                 0.0000                 0.0000
  Atom  AN      X      Y      Z        X      Y      Z        X      Y      Z
     1   6    -0.00  -0.01  -0.02    -0.00  -0.02  -0.04     0.00   0.02   0.03
     2   6    -0.00  -0.01   0.02    -0.00   0.02  -0.04    -0.00  -0.02   0.03
     3   6    -0.00  -0.05   0.00    -0.00  -0.00   0.00     0.00   0.04   0.00
     4   1     0.00   0.14   0.25     0.00   0.25   0.43    -0.00  -0.20  -0.35
     5   6     0.00  -0.05  -0.00     0.00   0.00   0.00     0.00  -0.04   0.00
     6   1     0.00   0.14  -0.25     0.00  -0.25   0.43     0.00   0.20  -0.35
     7   6    -0.00  -0.01  -0.02     0.00  -0.02  -0.04     0.00  -0.02  -0.03
     8   1    -0.00   0.57   0.00    -0.00  -0.00  -0.01    -0.00   0.41   0.00
     9   6     0.00  -0.01   0.02     0.00   0.02  -0.04    -0.00   0.02  -0.03
    10   1     0.00   0.14   0.25     0.00   0.25   0.43    -0.00   0.20   0.35
    11   1    -0.00   0.14  -0.25    -0.00  -0.25   0.43     0.00  -0.20   0.35
    12   1     0.00   0.57  -0.00     0.00   0.00  -0.01    -0.00  -0.41   0.00
                     28                     29                     30
                     A1                     B2                     B2
 Frequencies --   2994.5383              2994.5396              2997.3716
 Red. masses --      1.1109                 1.1109                 1.1148
 Frc consts  --      5.8694                 5.8695                 5.9012
 IR Inten    --      0.0000                 0.0000                 0.0000
  Atom  AN      X      Y      Z        X      Y      Z        X      Y      Z
     1   6     0.00  -0.02  -0.02    -0.00  -0.02  -0.04     0.00   0.02   0.03
     2   6     0.00   0.02  -0.02    -0.00  -0.02   0.04     0.00   0.02  -0.03
     3   6     0.00   0.06  -0.00    -0.00   0.00   0.01     0.00  -0.04   0.00
     4   1    -0.00   0.15   0.25     0.00   0.25   0.43    -0.00  -0.20  -0.35
     5   6    -0.00  -0.06  -0.00     0.00   0.00  -0.01    -0.00  -0.04  -0.00
     6   1    -0.00  -0.15   0.25     0.00   0.25  -0.43    -0.00  -0.20   0.35
     7   6    -0.00   0.02   0.02     0.00   0.02   0.04     0.00   0.02   0.03
     8   1     0.00   0.57   0.00    -0.00  -0.00   0.01     0.00   0.41   0.00
     9   6    -0.00  -0.02   0.02     0.00   0.02  -0.04    -0.00   0.02  -0.03
    10   1     0.00  -0.15  -0.25    -0.00  -0.25  -0.43     0.00  -0.20  -0.35
    11   1     0.00   0.15  -0.25    -0.00  -0.25   0.43    -0.00  -0.20   0.35
    12   1    -0.00  -0.57   0.00     0.00  -0.00  -0.01     0.00   0.41  -0.00

 -------------------
 - Thermochemistry -
 -------------------
 Temperature   298.150 Kelvin.  Pressure   1.00000 Atm.
 Atom     1 has atomic number  6 and mass  12.00000
 Atom     2 has atomic number  6 and mass  12.00000
 Atom     3 has atomic number  6 and mass  12.00000
 Atom     4 has atomic number  1 and mass   1.00783
 Atom     5 has atomic number  6 and mass  12.00000
 Atom     6 has atomic number  1 and mass   1.00783
 Atom     7 has atomic number  6 and mass  12.00000
 Atom     8 has atomic number  1 and mass   1.00783
 Atom     9 has atomic number  6 and mass  12.00000
 Atom    10 has atomic number  1 and mass   1.00783
 Atom    11 has atomic number  1 and mass   1.00783
 Atom    12 has atomic number  1 and mass   1.00783
 Molecular mass:    78.04695 amu.
 Principal axes and moments of inertia in atomic units:
                           1         2         3
     Eigenvalues --   318.13779 318.14176 636.27955
           X            0.00000   0.00000   1.00000
           Y            0.00000   1.00000  -0.00000
           Z            1.00000  -0.00000  -0.00000
 This molecule is an asymmetric top.
 Rotational symmetry number  2.
 Rotational temperatures (Kelvin)      0.27225     0.27225     0.13613
 Rotational constants (GHZ):           5.67283     5.67276     2.83640
 Zero-point vibrational energy     253448.2 (Joules/Mol)
                                   60.57557 (Kcal/Mol)
 Warning -- explicit consideration of   2 degrees of freedom as
           vibrations may cause significant error
 Vibrational temperatures:    597.54   597.64   960.62   977.98   977.99
          (Kelvin)            998.73  1220.94  1290.56  1290.70  1291.70
                             1291.76  1496.70  1496.77  1538.80  1609.06
                             1624.60  1624.76  1717.49  1785.39  1987.43
                             1987.50  2217.72  2275.81  2275.82  4300.14
                             4300.14  4301.82  4308.47  4308.47  4312.55
 
 Zero-point correction=                           0.096533 (Hartree/Particle)
 Thermal correction to Energy=                    0.100940
 Thermal correction to Enthalpy=                  0.101884
 Thermal correction to Gibbs Free Energy=         0.069725
 Sum of electronic and zero-point Energies=              0.102200
 Sum of electronic and thermal Energies=                 0.106606
 Sum of electronic and thermal Enthalpies=               0.107551
 Sum of electronic and thermal Free Energies=            0.075392
 
                     E (Thermal)             CV                S
                      KCal/Mol        Cal/Mol-Kelvin    Cal/Mol-Kelvin
 Total                   63.341             17.440             67.684
 Electronic               0.000              0.000              0.000
 Translational            0.889              2.981             38.979
 Rotational               0.889              2.981             24.291
 Vibrational             61.563             11.478              4.414
 Vibration     1          0.779              1.437              0.908
 Vibration     2          0.779              1.437              0.908
                       Q            Log10(Q)             Ln(Q)
 Total Bot       0.848732D-32        -32.071230        -73.846735
 Total V=0       0.214278D+13         12.330977         28.393123
 Vib (Bot)       0.689485D-44        -44.161475       -101.685554
 Vib (Bot)    1  0.424298D+00         -0.372329         -0.857319
 Vib (Bot)    2  0.424205D+00         -0.372424         -0.857539
 Vib (V=0)       0.174073D+01          0.240731          0.554305
 Vib (V=0)    1  0.115577D+01          0.062870          0.144763
 Vib (V=0)    2  0.115571D+01          0.062847          0.144711
 Electronic      0.100000D+01          0.000000          0.000000
 Translational   0.271012D+08          7.432988         17.115087
 Rotational      0.454211D+05          4.657258         10.723732
 ***** Axes restored to original set *****
 -------------------------------------------------------------------
 Center     Atomic                   Forces (Hartrees/Bohr)
 Number     Number              X              Y              Z
 -------------------------------------------------------------------
      1        6           0.000013542    0.000004223   -0.000000000
      2        6          -0.000013542    0.000004223   -0.000000000
      3        6           0.000006016    0.000024009    0.000000000
      4        1           0.000004932   -0.000005227    0.000000000
      5        6          -0.000006016    0.000024009    0.000000000
      6        1          -0.000004932   -0.000005227    0.000000000
      7        6          -0.000041837    0.000007995   -0.000000000
      8        1           0.000008374    0.000002513   -0.000000000
      9        6           0.000041837    0.000007995   -0.000000000
     10        1          -0.000028525   -0.000033513    0.000000000
     11        1           0.000028525   -0.000033513    0.000000000
     12        1          -0.000008374    0.000002513   -0.000000000
 -------------------------------------------------------------------
 Cartesian Forces:  Max     0.000041837 RMS     0.000016147
 Z-matrix is all fixed cartesians, so copy forces.
 Force constants in Cartesian coordinates: 
                1             2             3             4             5 
      1  0.641035D+00
      2  0.544058D-01  0.703890D+00
      3  0.000000D+00  0.000000D+00  0.143003D+00
      4 -0.327309D+00  0.229820D-01  0.000000D+00  0.641035D+00
      5 -0.229820D-01 -0.181505D+00  0.000000D+00 -0.544058D-01  0.703890D+00
      6  0.000000D+00  0.000000D+00 -0.667201D-01  0.000000D+00  0.000000D+00
      7 -0.217958D+00  0.401482D-01  0.000000D+00  0.000000D+00  0.385572D-01
      8  0.861167D-01 -0.290861D+00  0.000000D+00  0.000000D+00  0.222607D-01
      9  0.000000D+00  0.000000D+00 -0.667281D-01  0.000000D+00  0.000000D+00
     10 -0.126263D+00 -0.107093D+00  0.000000D+00  0.000000D+00 -0.155751D-01
     11 -0.107095D+00 -0.249957D+00  0.000000D+00  0.000000D+00  0.899093D-02
     12  0.000000D+00  0.000000D+00 -0.464650D-01  0.000000D+00  0.000000D+00
     13  0.000000D+00 -0.385572D-01  0.000000D+00 -0.217958D+00 -0.401482D-01
     14  0.000000D+00  0.222607D-01  0.000000D+00 -0.861167D-01 -0.290861D+00
     15  0.000000D+00  0.000000D+00  0.759552D-02  0.000000D+00  0.000000D+00
     16  0.000000D+00  0.155751D-01  0.000000D+00 -0.126263D+00  0.107093D+00
     17  0.000000D+00  0.899093D-02  0.000000D+00  0.107095D+00 -0.249957D+00
     18  0.000000D+00  0.000000D+00  0.906584D-02  0.000000D+00  0.000000D+00
     19 -0.285946D-02 -0.673726D-02  0.000000D+00  0.333909D-01 -0.192780D-01
     20 -0.673726D-02 -0.106394D-01  0.000000D+00  0.192805D-01 -0.111315D-01
     21  0.000000D+00  0.000000D+00 -0.778754D-02  0.000000D+00  0.000000D+00
     22 -0.348909D-04 -0.130890D-04  0.000000D+00  0.000000D+00  0.000000D+00
     23 -0.130890D-04 -0.549179D-05  0.000000D+00 -0.155742D-01  0.899160D-02
     24  0.000000D+00  0.000000D+00  0.568821D-02  0.000000D+00  0.000000D+00
     25  0.333909D-01  0.192780D-01  0.000000D+00 -0.285946D-02  0.673726D-02
     26 -0.192805D-01 -0.111315D-01  0.000000D+00  0.673726D-02 -0.106394D-01
     27  0.000000D+00  0.000000D+00  0.759603D-02  0.000000D+00  0.000000D+00
     28  0.000000D+00  0.479717D-05  0.000000D+00 -0.150529D-05 -0.618908D-05
     29  0.479717D-05  0.518890D-05  0.000000D+00 -0.618908D-05 -0.389037D-04
     30  0.000000D+00  0.000000D+00 -0.312077D-05  0.000000D+00  0.000000D+00
     31 -0.150529D-05  0.618908D-05  0.000000D+00  0.000000D+00 -0.479717D-05
     32  0.618908D-05 -0.389037D-04  0.000000D+00 -0.479717D-05  0.518890D-05
     33  0.000000D+00  0.000000D+00  0.568845D-02  0.000000D+00  0.000000D+00
     34  0.000000D+00  0.000000D+00  0.000000D+00 -0.348909D-04  0.130890D-04
     35  0.155742D-01  0.899160D-02  0.000000D+00  0.130890D-04 -0.549179D-05
     36  0.000000D+00  0.000000D+00  0.906673D-02  0.000000D+00  0.000000D+00
                6             7             8             9            10 
      6  0.143003D+00
      7  0.000000D+00  0.735289D+00
      8  0.000000D+00 -0.856541D-05  0.609632D+00
      9  0.759552D-02  0.000000D+00  0.000000D+00  0.143005D+00
     10  0.000000D+00  0.134883D-01  0.778733D-02  0.000000D+00  0.113363D+00
     11  0.000000D+00 -0.778625D-02 -0.449532D-02  0.000000D+00  0.114686D+00
     12  0.906584D-02  0.000000D+00  0.000000D+00  0.906672D-02  0.000000D+00
     13  0.000000D+00 -0.145249D-01  0.000000D+00  0.000000D+00 -0.241827D-04
     14  0.000000D+00  0.000000D+00  0.102989D-02  0.000000D+00 -0.192817D-04
     15 -0.667281D-01  0.000000D+00  0.000000D+00 -0.778785D-02  0.000000D+00
     16  0.000000D+00 -0.241827D-04  0.192817D-04  0.000000D+00 -0.467719D-03
     17  0.000000D+00  0.192817D-04 -0.162124D-04  0.000000D+00  0.000000D+00
     18 -0.464650D-01  0.000000D+00  0.000000D+00  0.568778D-02  0.000000D+00
     19  0.000000D+00  0.000000D+00  0.000000D+00  0.000000D+00  0.000000D+00
     20  0.000000D+00 -0.385598D-01  0.222651D-01  0.000000D+00  0.479814D-05
     21  0.759603D-02  0.000000D+00  0.000000D+00  0.759566D-02  0.000000D+00
     22  0.000000D+00  0.796257D-05  0.000000D+00  0.000000D+00  0.172542D-05
     23  0.000000D+00  0.000000D+00 -0.312036D-05  0.000000D+00  0.121697D-05
     24  0.906673D-02  0.000000D+00  0.000000D+00 -0.312036D-05  0.000000D+00
     25  0.000000D+00 -0.217964D+00 -0.861186D-01  0.000000D+00 -0.150622D-05
     26  0.000000D+00 -0.401502D-01 -0.290857D+00  0.000000D+00 -0.618781D-05
     27 -0.778754D-02  0.000000D+00  0.000000D+00 -0.667199D-01  0.000000D+00
     28  0.000000D+00 -0.242092D-04 -0.193047D-04  0.000000D+00  0.000000D+00
     29  0.000000D+00 -0.193047D-04 -0.162290D-04  0.000000D+00  0.000000D+00
     30  0.568845D-02  0.000000D+00  0.000000D+00  0.568842D-02  0.000000D+00
     31  0.000000D+00  0.134895D-01 -0.778909D-02  0.000000D+00  0.000000D+00
     32  0.000000D+00  0.778625D-02 -0.449593D-02  0.000000D+00  0.000000D+00
     33 -0.312077D-05  0.000000D+00  0.000000D+00  0.906727D-02  0.000000D+00
     34  0.000000D+00 -0.311780D+00  0.122535D-04  0.000000D+00 -0.957304D-04
     35  0.000000D+00  0.131935D-04 -0.644435D-01  0.000000D+00  0.214310D-03
     36  0.568821D-02  0.000000D+00  0.000000D+00 -0.464678D-01  0.000000D+00
               11            12            13            14            15 
     11  0.245823D+00
     12  0.000000D+00  0.315842D-01
     13 -0.192817D-04  0.000000D+00  0.735289D+00
     14 -0.162124D-04  0.000000D+00  0.856541D-05  0.609632D+00
     15  0.000000D+00  0.568778D-02  0.000000D+00  0.000000D+00  0.143005D+00
     16  0.000000D+00  0.000000D+00  0.134883D-01 -0.778733D-02  0.000000D+00
     17  0.280566D-04  0.000000D+00  0.778625D-02 -0.449532D-02  0.000000D+00
     18  0.000000D+00 -0.731139D-02  0.000000D+00  0.000000D+00  0.906672D-02
     19  0.479814D-05  0.000000D+00 -0.217964D+00  0.861186D-01  0.000000D+00
     20  0.519058D-05  0.000000D+00  0.401502D-01 -0.290857D+00  0.000000D+00
     21  0.000000D+00 -0.312055D-05  0.000000D+00  0.000000D+00 -0.667199D-01
     22  0.121697D-05  0.000000D+00 -0.311780D+00 -0.122535D-04  0.000000D+00
     23  0.000000D+00  0.000000D+00 -0.131935D-04 -0.644435D-01  0.000000D+00
     24  0.000000D+00  0.000000D+00  0.000000D+00  0.000000D+00 -0.464678D-01
     25 -0.618781D-05  0.000000D+00  0.000000D+00  0.000000D+00  0.000000D+00
     26 -0.388850D-04  0.000000D+00  0.385598D-01  0.222651D-01  0.000000D+00
     27  0.000000D+00  0.568829D-02  0.000000D+00  0.000000D+00  0.759566D-02
     28  0.000000D+00  0.000000D+00  0.134895D-01  0.778909D-02  0.000000D+00
     29  0.000000D+00  0.000000D+00 -0.778625D-02 -0.449593D-02  0.000000D+00
     30  0.000000D+00  0.000000D+00  0.000000D+00  0.000000D+00  0.906727D-02
     31  0.000000D+00  0.000000D+00 -0.242092D-04  0.193047D-04  0.000000D+00
     32  0.242815D-05  0.000000D+00  0.193047D-04 -0.162290D-04  0.000000D+00
     33  0.000000D+00  0.000000D+00  0.000000D+00  0.000000D+00  0.568842D-02
     34  0.214310D-03  0.000000D+00  0.796257D-05  0.000000D+00  0.000000D+00
     35 -0.343191D-03  0.000000D+00  0.000000D+00 -0.312036D-05  0.000000D+00
     36  0.000000D+00 -0.731245D-02  0.000000D+00  0.000000D+00 -0.312036D-05
               16            17            18            19            20 
     16  0.113363D+00
     17 -0.114686D+00  0.245823D+00
     18  0.000000D+00  0.000000D+00  0.315842D-01
     19 -0.150622D-05  0.618781D-05  0.000000D+00  0.641024D+00
     20  0.618781D-05 -0.388850D-04  0.000000D+00  0.544031D-01  0.703888D+00
     21  0.000000D+00  0.000000D+00  0.568829D-02  0.000000D+00  0.000000D+00
     22 -0.957304D-04 -0.214310D-03  0.000000D+00  0.000000D+00  0.000000D+00
     23 -0.214310D-03 -0.343191D-03  0.000000D+00  0.155741D-01  0.899279D-02
     24  0.000000D+00  0.000000D+00 -0.731245D-02  0.000000D+00  0.000000D+00
     25  0.000000D+00 -0.479814D-05  0.000000D+00 -0.327309D+00  0.229821D-01
     26 -0.479814D-05  0.519058D-05  0.000000D+00 -0.229821D-01 -0.181509D+00
     27  0.000000D+00  0.000000D+00 -0.312055D-05  0.000000D+00  0.000000D+00
     28  0.000000D+00  0.000000D+00  0.000000D+00 -0.126244D+00 -0.107094D+00
     29  0.000000D+00  0.242815D-05  0.000000D+00 -0.107096D+00 -0.249962D+00
     30  0.000000D+00  0.000000D+00  0.000000D+00  0.000000D+00  0.000000D+00
     31  0.000000D+00  0.000000D+00  0.000000D+00  0.000000D+00  0.155777D-01
     32  0.000000D+00  0.000000D+00  0.000000D+00  0.000000D+00  0.899157D-02
     33  0.000000D+00  0.000000D+00  0.000000D+00  0.000000D+00  0.000000D+00
     34  0.172542D-05 -0.121697D-05  0.000000D+00 -0.349181D-04 -0.130979D-04
     35 -0.121697D-05  0.000000D+00  0.000000D+00 -0.130979D-04 -0.549313D-05
     36  0.000000D+00  0.000000D+00  0.000000D+00  0.000000D+00  0.000000D+00
               21            22            23            24            25 
     21  0.142960D+00
     22  0.000000D+00  0.312029D+00
     23  0.000000D+00  0.129994D-04  0.471594D-01
     24  0.906644D-02  0.000000D+00  0.000000D+00  0.315869D-01
     25  0.000000D+00 -0.349181D-04  0.130979D-04  0.000000D+00  0.641024D+00
     26  0.000000D+00  0.130979D-04 -0.549313D-05  0.000000D+00 -0.544031D-01
     27 -0.667025D-01  0.000000D+00  0.000000D+00  0.568863D-02  0.000000D+00
     28  0.000000D+00 -0.958552D-04  0.214532D-03  0.000000D+00  0.000000D+00
     29  0.000000D+00  0.214532D-03 -0.343467D-03  0.000000D+00  0.000000D+00
     30 -0.464481D-01  0.000000D+00  0.000000D+00 -0.731265D-02  0.000000D+00
     31  0.000000D+00  0.172611D-05 -0.121736D-05  0.000000D+00 -0.126244D+00
     32  0.000000D+00 -0.121736D-05  0.000000D+00  0.000000D+00  0.107096D+00
     33  0.906643D-02  0.000000D+00  0.000000D+00  0.000000D+00  0.000000D+00
     34  0.000000D+00  0.000000D+00  0.000000D+00  0.000000D+00  0.000000D+00
     35  0.000000D+00  0.000000D+00  0.000000D+00  0.000000D+00 -0.155741D-01
     36  0.568863D-02  0.000000D+00  0.000000D+00  0.000000D+00  0.000000D+00
               26            27            28            29            30 
     26  0.703888D+00
     27  0.000000D+00  0.142960D+00
     28 -0.155777D-01  0.000000D+00  0.113344D+00
     29  0.899157D-02  0.000000D+00  0.114687D+00  0.245828D+00
     30  0.000000D+00  0.906643D-02  0.000000D+00  0.000000D+00  0.315662D-01
     31  0.107094D+00  0.000000D+00 -0.468445D-03  0.000000D+00  0.000000D+00
     32 -0.249962D+00  0.000000D+00  0.000000D+00  0.281061D-04  0.000000D+00
     33  0.000000D+00 -0.464481D-01  0.000000D+00  0.000000D+00 -0.731205D-02
     34  0.000000D+00  0.000000D+00  0.172611D-05  0.121736D-05  0.000000D+00
     35  0.899279D-02  0.000000D+00  0.121736D-05  0.000000D+00  0.000000D+00
     36  0.000000D+00  0.906644D-02  0.000000D+00  0.000000D+00  0.000000D+00
               31            32            33            34            35 
     31  0.113344D+00
     32 -0.114687D+00  0.245828D+00
     33  0.000000D+00  0.000000D+00  0.315662D-01
     34 -0.958552D-04 -0.214532D-03  0.000000D+00  0.312029D+00
     35 -0.214532D-03 -0.343467D-03  0.000000D+00 -0.129994D-04  0.471594D-01
     36  0.000000D+00  0.000000D+00 -0.731265D-02  0.000000D+00  0.000000D+00
               36 
     36  0.315869D-01
 Leave Link  716 at Wed Nov 15 15:14:47 2023, MaxMem= 10485760000 cpu:               0.1 elap:               0.0
 (Enter /opt/ohpc/Taiwania3/pkg/gaussian/g16c01/g16/l103.exe)

 GradGradGradGradGradGradGradGradGradGradGradGradGradGradGradGradGradGrad
 Berny optimization.
 Search for a local minimum.
 Step number   1 out of a maximum of    2
 All quantities printed in internal units (Hartrees-Bohrs-Radians)
 Second derivative matrix not updated -- analytic derivatives used.
 ITU=  0
     Eigenvalues ---    0.01767   0.01768   0.03294   0.03547   0.04364
     Eigenvalues ---    0.04365   0.04567   0.04742   0.04743   0.09818
     Eigenvalues ---    0.09819   0.10597   0.10597   0.13130   0.18275
     Eigenvalues ---    0.18789   0.21552   0.21556   0.31014   0.35787
     Eigenvalues ---    0.35790   0.57522   0.57525   0.84918   0.95834
     Eigenvalues ---    0.95836   1.03061   1.06497   1.26492   1.26494
 Angle between quadratic step and forces=  49.53 degrees.
 ClnCor:  largest displacement from symmetrization is 1.13D-13 for atom     2.
 Linear search not attempted -- first point.
 ClnCor:  largest displacement from symmetrization is 4.44D-16 for atom     4.
 B after Tr=     0.000000   -0.000001    0.000000
         Rot=    1.000000   -0.000000   -0.000000   -0.000000 Ang=   0.00 deg.
 Variable       Old X    -DE/DX   Delta X   Delta X   Delta X     New X
                                 (Linear)    (Quad)   (Total)
    X1        1.88963   0.00001   0.00000   0.00002   0.00002   1.88964
    Y1        1.88906   0.00000   0.00000   0.00002   0.00002   1.88908
    Z1        0.00000  -0.00000   0.00000   0.00000  -0.00000   0.00000
    X2       -0.75390  -0.00001   0.00000  -0.00002  -0.00002  -0.75392
    Y2        1.88906   0.00000   0.00000   0.00002   0.00002   1.88908
    Z2       -0.00000  -0.00000   0.00000  -0.00000   0.00000  -0.00000
    X3        3.21140   0.00001   0.00000   0.00002   0.00002   3.21142
    Y3       -0.40035   0.00002   0.00000   0.00005   0.00005  -0.40031
    Z3        0.00000   0.00000   0.00000   0.00000  -0.00000   0.00000
    X4        2.91390   0.00000   0.00000   0.00013   0.00013   2.91403
    Y4        3.66342  -0.00001   0.00000  -0.00005  -0.00005   3.66337
    Z4        0.00000   0.00000   0.00000   0.00000  -0.00000   0.00000
    X5       -2.07567  -0.00001   0.00000  -0.00002  -0.00002  -2.07570
    Y5       -0.40035   0.00002   0.00000   0.00005   0.00005  -0.40031
    Z5       -0.00000   0.00000   0.00000  -0.00000   0.00000  -0.00000
    X6       -1.77817  -0.00000   0.00000  -0.00013  -0.00013  -1.77830
    Y6        3.66342  -0.00001   0.00000  -0.00005  -0.00005   3.66337
    Z6       -0.00000   0.00000   0.00000  -0.00000   0.00000  -0.00000
    X7       -0.75381  -0.00004   0.00000  -0.00011  -0.00011  -0.75392
    Y7       -2.68962   0.00001   0.00000  -0.00008  -0.00008  -2.68970
    Z7       -0.00000  -0.00000   0.00000  -0.00000   0.00000  -0.00000
    X8       -4.12447   0.00001   0.00000   0.00000   0.00000  -4.12447
    Y8       -0.40046   0.00000   0.00000   0.00016   0.00016  -0.40031
    Z8       -0.00000  -0.00000   0.00000  -0.00000   0.00000  -0.00000
    X9        1.88953   0.00004   0.00000   0.00011   0.00011   1.88964
    Y9       -2.68962   0.00001   0.00000  -0.00008  -0.00008  -2.68970
    Z9        0.00000  -0.00000   0.00000   0.00000  -0.00000   0.00000
   X10       -1.77794  -0.00003   0.00000  -0.00037  -0.00037  -1.77830
   Y10       -4.46389  -0.00003   0.00000  -0.00009  -0.00009  -4.46399
   Z10       -0.00000   0.00000   0.00000  -0.00000   0.00000  -0.00000
   X11        2.91366   0.00003   0.00000   0.00037   0.00037   2.91403
   Y11       -4.46389  -0.00003   0.00000  -0.00009  -0.00009  -4.46399
   Z11        0.00000   0.00000   0.00000   0.00000  -0.00000   0.00000
   X12        5.26020  -0.00001   0.00000  -0.00000  -0.00000   5.26019
   Y12       -0.40046   0.00000   0.00000   0.00016   0.00016  -0.40031
   Z12        0.00000  -0.00000   0.00000  -0.00000  -0.00000   0.00000
         Item               Value     Threshold  Converged?
 Maximum Force            0.000042     0.000450     YES
 RMS     Force            0.000016     0.000300     YES
 Maximum Displacement     0.000367     0.001800     YES
 RMS     Displacement     0.000108     0.001200     YES
 Predicted change in Energy=-2.036335D-08
 Optimization completed.
    -- Stationary point found.
 GradGradGradGradGradGradGradGradGradGradGradGradGradGradGradGradGradGrad

 Leave Link  103 at Wed Nov 15 15:14:48 2023, MaxMem= 10485760000 cpu:               0.0 elap:               0.0
 (Enter /opt/ohpc/Taiwania3/pkg/gaussian/g16c01/g16/l9999.exe)
 Unable to Open any file for archive entry.
 1\1\GINC-CPN3051\Freq\AMBER\ZDO\C6H6\AN900821\15-Nov-2023\0\\#P Geom=A
 llCheck Guess=TCheck SCRF=Check GenChk AMBER/ZDO Freq\\Title Card Requ
 ired\\0,1\C,0.9999467095,0.9996483095,0.\C,-0.3989467095,0.9996483095,
 0.\C,1.6993989961,-0.2118571929,0.\H,1.541967132,1.9386000978,0.\C,-1.
 0983989961,-0.2118571929,0.\H,-0.940967132,1.9386000978,0.\C,-0.398898
 1625,-1.4232842004,0.\H,-2.1825759557,-0.2119160349,0.\C,0.9998981625,
 -1.4232842004,0.\H,-0.9408432149,-2.3621909791,0.\H,1.5418432149,-2.36
 21909791,0.\H,2.7835759557,-0.2119160349,0.\\Version=ES64L-G16RevC.01\
 HF=0.0056667\RMSD=0.000e+00\RMSF=1.615e-05\ZeroPoint=0.0965333\Thermal
 =0.1009398\ETot=0.1066065\HTot=0.1075507\GTot=0.0753916\Dipole=0.,0.,0
 .\PG=C02V [SGV(C6H6)]\NImag=0\\0.64103501,0.05440576,0.70388997,0.,0.,
 0.14300307,-0.32730935,0.02298204,0.,0.64103501,-0.02298204,-0.1815051
 6,0.,-0.05440576,0.70388997,0.,0.,-0.06672010,0.,0.,0.14300307,-0.2179
 5781,0.04014822,0.,0.,0.03855719,0.,0.73528896,0.08611666,-0.29086080,
 0.,0.,0.02226066,0.,-0.00000857,0.60963194,0.,0.,-0.06672810,0.,0.,0.0
 0759552,0.,0.,0.14300545,-0.12626338,-0.10709307,0.,0.,-0.01557515,0.,
 0.01348826,0.00778733,0.,0.11336315,-0.10709463,-0.24995717,0.,0.,0.00
 899093,0.,-0.00778625,-0.00449532,0.,0.11468560,0.24582324,0.,0.,-0.04
 646497,0.,0.,0.00906584,0.,0.,0.00906672,0.,0.,0.03158421,0.,-0.038557
 19,0.,-0.21795781,-0.04014822,0.,-0.01452492,0.,0.,-0.00002418,-0.0000
 1928,0.,0.73528896,0.,0.02226066,0.,-0.08611666,-0.29086080,0.,0.,0.00
 102989,0.,-0.00001928,-0.00001621,0.,0.00000857,0.60963194,0.,0.,0.007
 59552,0.,0.,-0.06672810,0.,0.,-0.00778785,0.,0.,0.00568778,0.,0.,0.143
 00545,0.,0.01557515,0.,-0.12626338,0.10709307,0.,-0.00002418,0.0000192
 8,0.,-0.00046772,0.,0.,0.01348826,-0.00778733,0.,0.11336315,0.,0.00899
 093,0.,0.10709463,-0.24995717,0.,0.00001928,-0.00001621,0.,0.,0.000028
 06,0.,0.00778625,-0.00449532,0.,-0.11468560,0.24582324,0.,0.,0.0090658
 4,0.,0.,-0.04646497,0.,0.,0.00568778,0.,0.,-0.00731139,0.,0.,0.0090667
 2,0.,0.,0.03158421,-0.00285946,-0.00673726,0.,0.03339090,-0.01927795,0
 .,0.,0.,0.,-0.00000035,0.00000480,0.,-0.21796384,0.08611857,0.,-0.0000
 0151,0.00000619,0.,0.64102372,-0.00673726,-0.01063937,0.,0.01928054,-0
 .01113145,0.,-0.03855978,0.02226514,0.,0.00000480,0.00000519,0.,0.0401
 5024,-0.29085652,0.,0.00000619,-0.00003888,0.,0.05440307,0.70388809,0.
 ,0.,-0.00778754,0.,0.,0.00759603,0.,0.,0.00759566,0.,0.,-0.00000312,0.
 ,0.,-0.06671994,0.,0.,0.00568829,0.,0.,0.14295971,-0.00003489,-0.00001
 309,0.,0.00000085,-0.00000049,0.,0.00000796,0.,0.,0.00000173,0.0000012
 2,0.,-0.31177972,-0.00001225,0.,-0.00009573,-0.00021431,0.,-0.00000085
 ,-0.00000049,0.,0.31202883,-0.00001309,-0.00000549,0.,-0.01557415,0.00
 899160,0.,0.,-0.00000312,0.,0.00000122,0.00000032,0.,-0.00001319,-0.06
 444351,0.,-0.00021431,-0.00034319,0.,0.01557411,0.00899279,0.,0.000013
 00,0.04715937,0.,0.,0.00568821,0.,0.,0.00906673,0.,0.,-0.00000312,0.,0
 .,-0.00000038,0.,0.,-0.04646780,0.,0.,-0.00731245,0.,0.,0.00906644,0.,
 0.,0.03158691,0.03339090,0.01927795,0.,-0.00285946,0.00673726,0.,-0.21
 796384,-0.08611857,0.,-0.00000151,-0.00000619,0.,0.,0.,0.,-0.00000035,
 -0.00000480,0.,-0.32730935,0.02298209,0.,-0.00003492,0.00001310,0.,0.6
 4102372,-0.01928054,-0.01113145,0.,0.00673726,-0.01063937,0.,-0.040150
 24,-0.29085652,0.,-0.00000619,-0.00003888,0.,0.03855978,0.02226514,0.,
 -0.00000480,0.00000519,0.,-0.02298209,-0.18150907,0.,0.00001310,-0.000
 00549,0.,-0.05440307,0.70388809,0.,0.,0.00759603,0.,0.,-0.00778754,0.,
 0.,-0.06671994,0.,0.,0.00568829,0.,0.,0.00759566,0.,0.,-0.00000312,0.,
 0.,-0.06670252,0.,0.,0.00568863,0.,0.,0.14295971,-0.00000035,0.0000048
 0,0.,-0.00000151,-0.00000619,0.,-0.00002421,-0.00001930,0.,0.00000012,
 0.00000043,0.,0.01348949,0.00778909,0.,-0.00000038,0.,0.,-0.12624435,-
 0.10709400,0.,-0.00009586,0.00021453,0.,0.,-0.01557768,0.,0.11334376,0
 .00000480,0.00000519,0.,-0.00000619,-0.00003890,0.,-0.00001930,-0.0000
 1623,0.,0.00000043,0.00000062,0.,-0.00778625,-0.00449593,0.,0.,0.00000
 243,0.,-0.10709634,-0.24996199,0.,0.00021453,-0.00034347,0.,0.,0.00899
 157,0.,0.11468711,0.24582828,0.,0.,-0.00000312,0.,0.,0.00568845,0.,0.,
 0.00568842,0.,0.,-0.00000013,0.,0.,0.00906727,0.,0.,-0.00000038,0.,0.,
 -0.04644806,0.,0.,-0.00731265,0.,0.,0.00906643,0.,0.,0.03156620,-0.000
 00151,0.00000619,0.,-0.00000035,-0.00000480,0.,0.01348949,-0.00778909,
 0.,-0.00000038,0.,0.,-0.00002421,0.00001930,0.,0.00000012,-0.00000043,
 0.,0.,0.01557768,0.,0.00000173,-0.00000122,0.,-0.12624435,0.10709400,0
 .,-0.00046845,0.,0.,0.11334376,0.00000619,-0.00003890,0.,-0.00000480,0
 .00000519,0.,0.00778625,-0.00449593,0.,0.,0.00000243,0.,0.00001930,-0.
 00001623,0.,-0.00000043,0.00000062,0.,0.,0.00899157,0.,-0.00000122,0.0
 0000032,0.,0.10709634,-0.24996199,0.,0.,0.00002811,0.,-0.11468711,0.24
 582828,0.,0.,0.00568845,0.,0.,-0.00000312,0.,0.,0.00906727,0.,0.,-0.00
 000038,0.,0.,0.00568842,0.,0.,-0.00000013,0.,0.,0.00906643,0.,0.,-0.00
 000038,0.,0.,-0.04644806,0.,0.,-0.00731205,0.,0.,0.03156620,0.00000085
 ,0.00000049,0.,-0.00003489,0.00001309,0.,-0.31177972,0.00001225,0.,-0.
 00009573,0.00021431,0.,0.00000796,0.,0.,0.00000173,-0.00000122,0.,-0.0
 0003492,-0.00001310,0.,0.00000087,0.,0.,-0.00000085,0.00000049,0.,0.00
 000173,0.00000122,0.,-0.00009586,-0.00021453,0.,0.31202883,0.01557415,
 0.00899160,0.,0.00001309,-0.00000549,0.,0.00001319,-0.06444351,0.,0.00
 021431,-0.00034319,0.,0.,-0.00000312,0.,-0.00000122,0.00000032,0.,-0.0
 0001310,-0.00000549,0.,0.,-0.00000013,0.,-0.01557411,0.00899279,0.,0.0
 0000122,0.00000032,0.,-0.00021453,-0.00034347,0.,-0.00001300,0.0471593
 7,0.,0.,0.00906673,0.,0.,0.00568821,0.,0.,-0.04646780,0.,0.,-0.0073124
 5,0.,0.,-0.00000312,0.,0.,-0.00000038,0.,0.,0.00568863,0.,0.,-0.000000
 13,0.,0.,0.00906644,0.,0.,-0.00000038,0.,0.,-0.00731265,0.,0.,0.031586
 91\\-0.00001354,-0.00000422,0.,0.00001354,-0.00000422,0.,-0.00000602,-
 0.00002401,0.,-0.00000493,0.00000523,0.,0.00000602,-0.00002401,0.,0.00
 000493,0.00000523,0.,0.00004184,-0.00000800,0.,-0.00000837,-0.00000251
 ,0.,-0.00004184,-0.00000800,0.,0.00002853,0.00003351,0.,-0.00002853,0.
 00003351,0.,0.00000837,-0.00000251,0.\\\@
 The archive entry for this job was punched.


 BRING ME INTO THE COMPANY OF THOSE WHO SEEK TRUTH,
 AND DELIVER ME FROM THOSE WHO HAVE FOUND IT.
 Job cpu time:       0 days  0 hours  0 minutes  1.2 seconds.
 Elapsed time:       0 days  0 hours  0 minutes  0.6 seconds.
 File lengths (MBytes):  RWF=    272 Int=      0 D2E=      0 Chk=     32 Scr=     32
 Normal termination of Gaussian 16 at Wed Nov 15 15:14:48 2023.
