ligand                                                                  
Freq      RwB97XD                                                     6-311++G(d,p)       
Number of atoms                            I               12
Info1-9                                    I   N=           9
          21          21        1002           0           0         100
           6          18       -5802
Full Title                                 C   N=           1
ligand      
Route                                      C   N=           4
#p wB97XD/6-311++G(d,p) SCF=QC opt=tight freq   
Charge                                     I                0
Multiplicity                               I                1
Number of electrons                        I               42
Number of alpha electrons                  I               21
Number of beta electrons                   I               21
Number of basis functions                  I              174
Number of independent functions            I              174
Number of point charges in /Mol/           I                0
Number of translation vectors              I                0
Atomic numbers                             I   N=          12
           6           6           6           1           6           1
           6           1           6           1           1           1
Nuclear charges                            R   N=          12
  6.00000000E+00  6.00000000E+00  6.00000000E+00  1.00000000E+00  6.00000000E+00
  1.00000000E+00  6.00000000E+00  1.00000000E+00  6.00000000E+00  1.00000000E+00
  1.00000000E+00  1.00000000E+00
Current cartesian coordinates              R   N=          36
 -9.86076132E-32  1.31412720E+00  2.27623722E+00  1.60934167E-16 -1.31412720E+00
  2.27623722E+00  0.00000000E+00  2.62817053E+00 -8.59389158E-07  0.00000000E+00
  2.33889221E+00  4.05084231E+00  3.21858063E-16 -2.62817053E+00 -8.59389158E-07
  2.86431685E-16 -2.33889221E+00  4.05084231E+00  1.97215226E-31 -1.31413019E+00
 -2.27623553E+00  0.00000000E+00 -4.67740280E+00  2.64188451E-06 -1.60934533E-16
  1.31413019E+00 -2.27623553E+00  0.00000000E+00 -2.33887940E+00 -4.05084996E+00
 -2.86430117E-16  2.33887940E+00 -4.05084996E+00 -5.72816637E-16  4.67740280E+00
  2.64188451E-06
Number of symbols in /Mol/                 I                0
Int Atom Types                             I   N=          12
           0           0           0           0           0           0
           0           0           0           0           0           0
Force Field                                I                0
Atom Types                                 C   N=          12
                                                            
                                                            
                        
MM charges                                 R   N=          12
  0.00000000E+00  0.00000000E+00  0.00000000E+00  0.00000000E+00  0.00000000E+00
  0.00000000E+00  0.00000000E+00  0.00000000E+00  0.00000000E+00  0.00000000E+00
  0.00000000E+00  0.00000000E+00
Integer atomic weights                     I   N=          12
          12          12          12           1          12           1
          12           1          12           1           1           1
Real atomic weights                        R   N=          12
  1.20000000E+01  1.20000000E+01  1.20000000E+01  1.00782504E+00  1.20000000E+01
  1.00782504E+00  1.20000000E+01  1.00782504E+00  1.20000000E+01  1.00782504E+00
  1.00782504E+00  1.00782504E+00
Atom fragment info                         I   N=          12
           0           0           0           0           0           0
           0           0           0           0           0           0
Atom residue num                           I   N=          12
           0           0           0           0           0           0
           0           0           0           0           0           0
Nuclear spins                              I   N=          12
           0           0           0           1           0           1
           0           1           0           1           1           1
Nuclear ZEff                               R   N=          12
 -3.60000000E+00 -3.60000000E+00 -3.60000000E+00 -1.00000000E+00 -3.60000000E+00
 -1.00000000E+00 -3.60000000E+00 -1.00000000E+00 -3.60000000E+00 -1.00000000E+00
 -1.00000000E+00 -1.00000000E+00
Nuclear ZNuc                               R   N=          12
  6.00000000E+00  6.00000000E+00  6.00000000E+00  1.00000000E+00  6.00000000E+00
  1.00000000E+00  6.00000000E+00  1.00000000E+00  6.00000000E+00  1.00000000E+00
  1.00000000E+00  1.00000000E+00
Nuclear QMom                               R   N=          12
  0.00000000E+00  0.00000000E+00  0.00000000E+00  0.00000000E+00  0.00000000E+00
  0.00000000E+00  0.00000000E+00  0.00000000E+00  0.00000000E+00  0.00000000E+00
  0.00000000E+00  0.00000000E+00
Nuclear GFac                               R   N=          12
  0.00000000E+00  0.00000000E+00  0.00000000E+00  2.79284600E+00  0.00000000E+00
  2.79284600E+00  0.00000000E+00  2.79284600E+00  0.00000000E+00  2.79284600E+00
  2.79284600E+00  2.79284600E+00
MicOpt                                     I   N=          12
          -1          -1          -1          -1          -1          -1
          -1          -1          -1          -1          -1          -1
Number of residues                         I                0
Number of secondary structures             I                0
Redundant internal dimensions              I   N=           4
          54          12          18          24
Redundant internal coordinate indices      I   N=         216
           1           2           0           0           1           3
           0           0           1           4           0           0
           2           5           0           0           2           6
           0           0           3           9           0           0
           3          12           0           0           5           7
           0           0           5           8           0           0
           7           9           0           0           7          10
           0           0           9          11           0           0
           2           1           3           0           2           1
           4           0           3           1           4           0
           1           2           5           0           1           2
           6           0           5           2           6           0
           1           3           9           0           1           3
          12           0           9           3          12           0
           2           5           7           0           2           5
           8           0           7           5           8           0
           5           7           9           0           5           7
          10           0           9           7          10           0
           3           9           7           0           3           9
          11           0           7           9          11           0
           3           1           2           5           3           1
           2           6           4           1           2           5
           4           1           2           6           2           1
           3           9           2           1           3          12
           4           1           3           9           4           1
           3          12           1           2           5           7
           1           2           5           8           6           2
           5           7           6           2           5           8
           1           3           9           7           1           3
           9          11          12           3           9           7
          12           3           9          11           2           5
           7           9           2           5           7          10
           8           5           7           9           8           5
           7          10           5           7           9           3
           5           7           9          11          10           7
           9           3          10           7           9          11
Redundant internal coordinates             R   N=          54
  2.62825440E+00  2.62830167E+00  2.04923560E+00  2.62830167E+00  2.04923560E+00
  2.62829722E+00  2.04923227E+00  2.62829722E+00  2.04923227E+00  2.62826037E+00
  2.04923579E+00  2.04923579E+00  2.09434787E+00  2.09447805E+00  2.09435938E+00
  2.09434787E+00  2.09447805E+00  2.09435938E+00  2.09448990E+00  2.09434616E+00
  2.09434925E+00  2.09448990E+00  2.09434616E+00  2.09434925E+00  2.09434754E+00
  2.09436867E+00  2.09446910E+00  2.09434754E+00  2.09436867E+00  2.09446910E+00
 -0.00000000E+00  3.14159265E+00  3.14159265E+00  0.00000000E+00  0.00000000E+00
  3.14159265E+00  3.14159265E+00 -0.00000000E+00 -0.00000000E+00  3.14159265E+00
  3.14159265E+00  0.00000000E+00 -0.00000000E+00  3.14159265E+00  3.14159265E+00
  0.00000000E+00  0.00000000E+00  3.14159265E+00  3.14159265E+00 -0.00000000E+00
 -0.00000000E+00  3.14159265E+00  3.14159265E+00 -0.00000000E+00
ZRed-IntVec                                I   N=          54
           0           0           0           0           0           0
           0           0           0           0           0           0
           0           0           0           0           0           0
           0           0           0           0           0           0
           0           0           0           0           0           0
           0           0           0           0           0           0
           0           0           0           0           0           0
           0           0           0           0           0           0
           0           0           0           0           0           0
ZRed-FPVec                                 R   N=          54
  0.00000000E+00  0.00000000E+00  0.00000000E+00  0.00000000E+00  0.00000000E+00
  0.00000000E+00  0.00000000E+00  0.00000000E+00  0.00000000E+00  0.00000000E+00
  0.00000000E+00  0.00000000E+00  0.00000000E+00  0.00000000E+00  0.00000000E+00
  0.00000000E+00  0.00000000E+00  0.00000000E+00  0.00000000E+00  0.00000000E+00
  0.00000000E+00  0.00000000E+00  0.00000000E+00  0.00000000E+00  0.00000000E+00
  0.00000000E+00  0.00000000E+00  0.00000000E+00  0.00000000E+00  0.00000000E+00
  0.00000000E+00  0.00000000E+00  0.00000000E+00  0.00000000E+00  0.00000000E+00
  0.00000000E+00  0.00000000E+00  0.00000000E+00  0.00000000E+00  0.00000000E+00
  0.00000000E+00  0.00000000E+00  0.00000000E+00  0.00000000E+00  0.00000000E+00
  0.00000000E+00  0.00000000E+00  0.00000000E+00  0.00000000E+00  0.00000000E+00
  0.00000000E+00  0.00000000E+00  0.00000000E+00  0.00000000E+00
ZRed-Constraint1                           R   N=          54
  2.62825440E+00  2.62830167E+00  2.04923560E+00  2.62830167E+00  2.04923560E+00
  2.62829722E+00  2.04923227E+00  2.62829722E+00  2.04923227E+00  2.62826037E+00
  2.04923579E+00  2.04923579E+00  2.09434787E+00  2.09447805E+00  2.09435938E+00
  2.09434787E+00  2.09447805E+00  2.09435938E+00  2.09448990E+00  2.09434616E+00
  2.09434925E+00  2.09448990E+00  2.09434616E+00  2.09434925E+00  2.09434754E+00
  2.09436867E+00  2.09446910E+00  2.09434754E+00  2.09436867E+00  2.09446910E+00
 -0.00000000E+00  3.14159265E+00  3.14159265E+00  0.00000000E+00  0.00000000E+00
  3.14159265E+00  3.14159265E+00 -0.00000000E+00 -0.00000000E+00  3.14159265E+00
  3.14159265E+00  0.00000000E+00 -0.00000000E+00  3.14159265E+00  3.14159265E+00
  0.00000000E+00  0.00000000E+00  3.14159265E+00  3.14159265E+00 -0.00000000E+00
  0.00000000E+00  3.14159265E+00  3.14159265E+00 -0.00000000E+00
ZRed-Constraint2                           R   N=          54
  2.64372685E+00  2.64490378E+00  2.04461904E+00  2.64490378E+00  2.04461904E+00
  2.64326755E+00  2.04468367E+00  2.64326755E+00  2.04468367E+00  2.64372685E+00
  2.04625580E+00  2.04625580E+00  2.09455070E+00  2.09441335E+00  2.09422125E+00
  2.09455070E+00  2.09441335E+00  2.09422125E+00  2.09372634E+00  2.09455070E+00
  2.09490826E+00  2.09372634E+00  2.09455070E+00  2.09490826E+00  2.09490826E+00
  2.09432546E+00  2.09395158E+00  2.09490826E+00  2.09432546E+00  2.09395158E+00
  0.00000000E+00  3.14159265E+00  3.14159265E+00  0.00000000E+00  0.00000000E+00
  3.14159265E+00  3.14159265E+00  0.00000000E+00  0.00000000E+00  3.14159265E+00
  3.14159265E+00  0.00000000E+00  0.00000000E+00  3.14159265E+00  3.14159265E+00
  0.00000000E+00  0.00000000E+00  3.14159265E+00  3.14159265E+00  0.00000000E+00
  0.00000000E+00  3.14159265E+00  3.14159265E+00  0.00000000E+00
SymInf integers                            I   N=          26
           2           4           1           1           1          -1
          -1           1          -1           1           1           1
          -1           1           0           0           0           0
           0           0           0           0           0           0
           0           0
RotTr to input orientation                 R   N=          12
 -3.13080939E-16  6.12323400E-17  1.00000000E+00  1.00000000E+00 -1.83697020E-16
  3.13080939E-16  1.83697020E-16  1.00000000E+00 -6.12323400E-17  5.67862700E-01
 -4.00306289E-01 -6.46720937E-17
Number of contracted shells                I               66
Number of primitive shells                 I              120
Pure/Cartesian d shells                    I                0
Pure/Cartesian f shells                    I                0
Highest angular momentum                   I                2
Largest degree of contraction              I                6
Shell types                                I   N=          66
           0          -1          -1          -1          -1          -2
           0          -1          -1          -1          -1          -2
           0          -1          -1          -1          -1          -2
           0           0           0           0           1           0
          -1          -1          -1          -1          -2           0
           0           0           0           1           0          -1
          -1          -1          -1          -2           0           0
           0           0           1           0          -1          -1
          -1          -1          -2           0           0           0
           0           1           0           0           0           0
           1           0           0           0           0           1
Number of primitives per shell             I   N=          66
           6           3           1           1           1           1
           6           3           1           1           1           1
           6           3           1           1           1           1
           3           1           1           1           1           6
           3           1           1           1           1           3
           1           1           1           1           6           3
           1           1           1           1           3           1
           1           1           1           6           3           1
           1           1           1           3           1           1
           1           1           3           1           1           1
           1           3           1           1           1           1
Shell to atom map                          I   N=          66
           1           1           1           1           1           1
           2           2           2           2           2           2
           3           3           3           3           3           3
           4           4           4           4           4           5
           5           5           5           5           5           6
           6           6           6           6           7           7
           7           7           7           7           8           8
           8           8           8           9           9           9
           9           9           9          10          10          10
          10          10          11          11          11          11
          11          12          12          12          12          12
Primitive exponents                        R   N=         120
  4.56324000E+03  6.82024000E+02  1.54973000E+02  4.44553000E+01  1.30290000E+01
  1.82773000E+00  2.09642000E+01  4.80331000E+00  1.45933000E+00  4.83456000E-01
  1.45585000E-01  4.38000000E-02  6.26000000E-01  4.56324000E+03  6.82024000E+02
  1.54973000E+02  4.44553000E+01  1.30290000E+01  1.82773000E+00  2.09642000E+01
  4.80331000E+00  1.45933000E+00  4.83456000E-01  1.45585000E-01  4.38000000E-02
  6.26000000E-01  4.56324000E+03  6.82024000E+02  1.54973000E+02  4.44553000E+01
  1.30290000E+01  1.82773000E+00  2.09642000E+01  4.80331000E+00  1.45933000E+00
  4.83456000E-01  1.45585000E-01  4.38000000E-02  6.26000000E-01  3.38650000E+01
  5.09479000E+00  1.15879000E+00  3.25840000E-01  1.02741000E-01  3.60000000E-02
  7.50000000E-01  4.56324000E+03  6.82024000E+02  1.54973000E+02  4.44553000E+01
  1.30290000E+01  1.82773000E+00  2.09642000E+01  4.80331000E+00  1.45933000E+00
  4.83456000E-01  1.45585000E-01  4.38000000E-02  6.26000000E-01  3.38650000E+01
  5.09479000E+00  1.15879000E+00  3.25840000E-01  1.02741000E-01  3.60000000E-02
  7.50000000E-01  4.56324000E+03  6.82024000E+02  1.54973000E+02  4.44553000E+01
  1.30290000E+01  1.82773000E+00  2.09642000E+01  4.80331000E+00  1.45933000E+00
  4.83456000E-01  1.45585000E-01  4.38000000E-02  6.26000000E-01  3.38650000E+01
  5.09479000E+00  1.15879000E+00  3.25840000E-01  1.02741000E-01  3.60000000E-02
  7.50000000E-01  4.56324000E+03  6.82024000E+02  1.54973000E+02  4.44553000E+01
  1.30290000E+01  1.82773000E+00  2.09642000E+01  4.80331000E+00  1.45933000E+00
  4.83456000E-01  1.45585000E-01  4.38000000E-02  6.26000000E-01  3.38650000E+01
  5.09479000E+00  1.15879000E+00  3.25840000E-01  1.02741000E-01  3.60000000E-02
  7.50000000E-01  3.38650000E+01  5.09479000E+00  1.15879000E+00  3.25840000E-01
  1.02741000E-01  3.60000000E-02  7.50000000E-01  3.38650000E+01  5.09479000E+00
  1.15879000E+00  3.25840000E-01  1.02741000E-01  3.60000000E-02  7.50000000E-01
Contraction coefficients                   R   N=         120
  1.96665025E-03  1.52306019E-02  7.61269097E-02  2.60801033E-01  6.16462078E-01
  2.21006028E-01  1.14660081E-01  9.19999648E-01 -3.03068213E-03  1.00000000E+00
  1.00000000E+00  1.00000000E+00  1.00000000E+00  1.96665025E-03  1.52306019E-02
  7.61269097E-02  2.60801033E-01  6.16462078E-01  2.21006028E-01  1.14660081E-01
  9.19999648E-01 -3.03068213E-03  1.00000000E+00  1.00000000E+00  1.00000000E+00
  1.00000000E+00  1.96665025E-03  1.52306019E-02  7.61269097E-02  2.60801033E-01
  6.16462078E-01  2.21006028E-01  1.14660081E-01  9.19999648E-01 -3.03068213E-03
  1.00000000E+00  1.00000000E+00  1.00000000E+00  1.00000000E+00  2.54938145E-02
  1.90373109E-01  8.52161486E-01  1.00000000E+00  1.00000000E+00  1.00000000E+00
  1.00000000E+00  1.96665025E-03  1.52306019E-02  7.61269097E-02  2.60801033E-01
  6.16462078E-01  2.21006028E-01  1.14660081E-01  9.19999648E-01 -3.03068213E-03
  1.00000000E+00  1.00000000E+00  1.00000000E+00  1.00000000E+00  2.54938145E-02
  1.90373109E-01  8.52161486E-01  1.00000000E+00  1.00000000E+00  1.00000000E+00
  1.00000000E+00  1.96665025E-03  1.52306019E-02  7.61269097E-02  2.60801033E-01
  6.16462078E-01  2.21006028E-01  1.14660081E-01  9.19999648E-01 -3.03068213E-03
  1.00000000E+00  1.00000000E+00  1.00000000E+00  1.00000000E+00  2.54938145E-02
  1.90373109E-01  8.52161486E-01  1.00000000E+00  1.00000000E+00  1.00000000E+00
  1.00000000E+00  1.96665025E-03  1.52306019E-02  7.61269097E-02  2.60801033E-01
  6.16462078E-01  2.21006028E-01  1.14660081E-01  9.19999648E-01 -3.03068213E-03
  1.00000000E+00  1.00000000E+00  1.00000000E+00  1.00000000E+00  2.54938145E-02
  1.90373109E-01  8.52161486E-01  1.00000000E+00  1.00000000E+00  1.00000000E+00
  1.00000000E+00  2.54938145E-02  1.90373109E-01  8.52161486E-01  1.00000000E+00
  1.00000000E+00  1.00000000E+00  1.00000000E+00  2.54938145E-02  1.90373109E-01
  8.52161486E-01  1.00000000E+00  1.00000000E+00  1.00000000E+00  1.00000000E+00
P(S=P) Contraction coefficients            R   N=         120
  0.00000000E+00  0.00000000E+00  0.00000000E+00  0.00000000E+00  0.00000000E+00
  0.00000000E+00  4.02486927E-02  2.37593957E-01  8.15853851E-01  1.00000000E+00
  1.00000000E+00  1.00000000E+00  0.00000000E+00  0.00000000E+00  0.00000000E+00
  0.00000000E+00  0.00000000E+00  0.00000000E+00  0.00000000E+00  4.02486927E-02
  2.37593957E-01  8.15853851E-01  1.00000000E+00  1.00000000E+00  1.00000000E+00
  0.00000000E+00  0.00000000E+00  0.00000000E+00  0.00000000E+00  0.00000000E+00
  0.00000000E+00  0.00000000E+00  4.02486927E-02  2.37593957E-01  8.15853851E-01
  1.00000000E+00  1.00000000E+00  1.00000000E+00  0.00000000E+00  0.00000000E+00
  0.00000000E+00  0.00000000E+00  0.00000000E+00  0.00000000E+00  0.00000000E+00
  0.00000000E+00  0.00000000E+00  0.00000000E+00  0.00000000E+00  0.00000000E+00
  0.00000000E+00  0.00000000E+00  4.02486927E-02  2.37593957E-01  8.15853851E-01
  1.00000000E+00  1.00000000E+00  1.00000000E+00  0.00000000E+00  0.00000000E+00
  0.00000000E+00  0.00000000E+00  0.00000000E+00  0.00000000E+00  0.00000000E+00
  0.00000000E+00  0.00000000E+00  0.00000000E+00  0.00000000E+00  0.00000000E+00
  0.00000000E+00  0.00000000E+00  4.02486927E-02  2.37593957E-01  8.15853851E-01
  1.00000000E+00  1.00000000E+00  1.00000000E+00  0.00000000E+00  0.00000000E+00
  0.00000000E+00  0.00000000E+00  0.00000000E+00  0.00000000E+00  0.00000000E+00
  0.00000000E+00  0.00000000E+00  0.00000000E+00  0.00000000E+00  0.00000000E+00
  0.00000000E+00  0.00000000E+00  4.02486927E-02  2.37593957E-01  8.15853851E-01
  1.00000000E+00  1.00000000E+00  1.00000000E+00  0.00000000E+00  0.00000000E+00
  0.00000000E+00  0.00000000E+00  0.00000000E+00  0.00000000E+00  0.00000000E+00
  0.00000000E+00  0.00000000E+00  0.00000000E+00  0.00000000E+00  0.00000000E+00
  0.00000000E+00  0.00000000E+00  0.00000000E+00  0.00000000E+00  0.00000000E+00
  0.00000000E+00  0.00000000E+00  0.00000000E+00  0.00000000E+00  0.00000000E+00
Coordinates of each shell                  R   N=         198
 -4.93038066E-32  1.31412720E+00  2.27623722E+00 -4.93038066E-32  1.31412720E+00
  2.27623722E+00 -4.93038066E-32  1.31412720E+00  2.27623722E+00 -4.93038066E-32
  1.31412720E+00  2.27623722E+00 -4.93038066E-32  1.31412720E+00  2.27623722E+00
 -4.93038066E-32  1.31412720E+00  2.27623722E+00  1.60934167E-16 -1.31412720E+00
  2.27623722E+00  1.60934167E-16 -1.31412720E+00  2.27623722E+00  1.60934167E-16
 -1.31412720E+00  2.27623722E+00  1.60934167E-16 -1.31412720E+00  2.27623722E+00
  1.60934167E-16 -1.31412720E+00  2.27623722E+00  1.60934167E-16 -1.31412720E+00
  2.27623722E+00  0.00000000E+00  2.62817053E+00 -8.59389158E-07  0.00000000E+00
  2.62817053E+00 -8.59389158E-07  0.00000000E+00  2.62817053E+00 -8.59389158E-07
  0.00000000E+00  2.62817053E+00 -8.59389158E-07  0.00000000E+00  2.62817053E+00
 -8.59389158E-07  0.00000000E+00  2.62817053E+00 -8.59389158E-07  0.00000000E+00
  2.33889221E+00  4.05084231E+00  0.00000000E+00  2.33889221E+00  4.05084231E+00
  0.00000000E+00  2.33889221E+00  4.05084231E+00  0.00000000E+00  2.33889221E+00
  4.05084231E+00  0.00000000E+00  2.33889221E+00  4.05084231E+00  3.21858063E-16
 -2.62817053E+00 -8.59389158E-07  3.21858063E-16 -2.62817053E+00 -8.59389158E-07
  3.21858063E-16 -2.62817053E+00 -8.59389158E-07  3.21858063E-16 -2.62817053E+00
 -8.59389158E-07  3.21858063E-16 -2.62817053E+00 -8.59389158E-07  3.21858063E-16
 -2.62817053E+00 -8.59389158E-07  2.86431685E-16 -2.33889221E+00  4.05084231E+00
  2.86431685E-16 -2.33889221E+00  4.05084231E+00  2.86431685E-16 -2.33889221E+00
  4.05084231E+00  2.86431685E-16 -2.33889221E+00  4.05084231E+00  2.86431685E-16
 -2.33889221E+00  4.05084231E+00  9.86076132E-32 -1.31413019E+00 -2.27623553E+00
  9.86076132E-32 -1.31413019E+00 -2.27623553E+00  9.86076132E-32 -1.31413019E+00
 -2.27623553E+00  9.86076132E-32 -1.31413019E+00 -2.27623553E+00  9.86076132E-32
 -1.31413019E+00 -2.27623553E+00  9.86076132E-32 -1.31413019E+00 -2.27623553E+00
  0.00000000E+00 -4.67740280E+00  2.64188451E-06  0.00000000E+00 -4.67740280E+00
  2.64188451E-06  0.00000000E+00 -4.67740280E+00  2.64188451E-06  0.00000000E+00
 -4.67740280E+00  2.64188451E-06  0.00000000E+00 -4.67740280E+00  2.64188451E-06
 -1.60934533E-16  1.31413019E+00 -2.27623553E+00 -1.60934533E-16  1.31413019E+00
 -2.27623553E+00 -1.60934533E-16  1.31413019E+00 -2.27623553E+00 -1.60934533E-16
  1.31413019E+00 -2.27623553E+00 -1.60934533E-16  1.31413019E+00 -2.27623553E+00
 -1.60934533E-16  1.31413019E+00 -2.27623553E+00  0.00000000E+00 -2.33887940E+00
 -4.05084996E+00  0.00000000E+00 -2.33887940E+00 -4.05084996E+00  0.00000000E+00
 -2.33887940E+00 -4.05084996E+00  0.00000000E+00 -2.33887940E+00 -4.05084996E+00
  0.00000000E+00 -2.33887940E+00 -4.05084996E+00 -2.86430117E-16  2.33887940E+00
 -4.05084996E+00 -2.86430117E-16  2.33887940E+00 -4.05084996E+00 -2.86430117E-16
  2.33887940E+00 -4.05084996E+00 -2.86430117E-16  2.33887940E+00 -4.05084996E+00
 -2.86430117E-16  2.33887940E+00 -4.05084996E+00 -5.72816637E-16  4.67740280E+00
  2.64188451E-06 -5.72816637E-16  4.67740280E+00  2.64188451E-06 -5.72816637E-16
  4.67740280E+00  2.64188451E-06 -5.72816637E-16  4.67740280E+00  2.64188451E-06
 -5.72816637E-16  4.67740280E+00  2.64188451E-06
Num ILSW                                   I              100
ILSW                                       I   N=         100
           0           0           0           0           2           0
           0           0           0           0        4639          -1
           5           0           0           0           2           0
           0           0           0           0           1           0
           1           0           0           0           0           0
           0           0      100000           0          -1           0
           0           0           0           0           0           0
           0           0           0           1           0           0
           0 -2000000000           1           0           0           0
           0           0         121          52           0           0
           0           0          58           0           0           0
           0           0           0          12           0           1
           0           0           0           0           0           0
           0           0           0           0           0           0
           0           0           0           0           0           0
           0           0           0           0           0           0
           0           0           0           0
Num RLSW                                   I               52
RLSW                                       R   N=          52
  1.00000000E+00  1.00000000E+00  1.00000000E+00  1.00000000E+00  1.00000000E+00
  0.00000000E+00  2.00000000E-01  2.22036000E-01  0.00000000E+00  7.77964000E-01
  0.00000000E+00  2.00000000E-01  0.00000000E+00  0.00000000E+00  1.00000000E+00
  0.00000000E+00  0.00000000E+00  1.00000000E+00  0.00000000E+00  0.00000000E+00
  0.00000000E+00  0.00000000E+00  1.00000000E+00  0.00000000E+00  0.00000000E+00
  0.00000000E+00  0.00000000E+00  1.00000000E+00  0.00000000E+00  0.00000000E+00
  0.00000000E+00  0.00000000E+00  1.00000000E+00  0.00000000E+00  0.00000000E+00
  0.00000000E+00  0.00000000E+00  0.00000000E+00  1.00000000E+00  1.00000000E+00
  0.00000000E+00  1.00000000E+00  0.00000000E+00  0.00000000E+00  0.00000000E+00
  0.00000000E+00  0.00000000E+00  0.00000000E+00  0.00000000E+00  0.00000000E+00
  0.00000000E+00  0.00000000E+00
MxBond                                     I                3
NBond                                      I   N=          12
           3           3           3           1           3           1
           3           1           3           1           1           1
IBond                                      I   N=          36
           2           3           4           1           5           6
           1           9          12           1           0           0
           2           7           8           2           0           0
           5           9          10           5           0           0
           3           7          11           7           0           0
           9           0           0           3           0           0
RBond                                      R   N=          36
  1.50000000E+00  1.50000000E+00  1.00000000E+00  1.50000000E+00  1.50000000E+00
  1.00000000E+00  1.50000000E+00  1.50000000E+00  1.00000000E+00  1.00000000E+00
  0.00000000E+00  0.00000000E+00  1.50000000E+00  1.50000000E+00  1.00000000E+00
  1.00000000E+00  0.00000000E+00  0.00000000E+00  1.50000000E+00  1.50000000E+00
  1.00000000E+00  1.00000000E+00  0.00000000E+00  0.00000000E+00  1.50000000E+00
  1.50000000E+00  1.00000000E+00  1.00000000E+00  0.00000000E+00  0.00000000E+00
  1.00000000E+00  0.00000000E+00  0.00000000E+00  1.00000000E+00  0.00000000E+00
  0.00000000E+00
Virial Ratio                               R      2.004473053299901E+00
SCF Energy                                 R     -2.322210227358513E+02
Total Energy                               R     -2.322210227358513E+02
RMS Force                                  R      9.192251622539171E-07
RMS Density                                R      1.169678941179014E-10
NImag                                      I                0
Job Status                                 I                1
Nuclear derivative order                   I                2