 Entering Gaussian System, Link 0=g16
 Initial command:
 /opt/ohpc/Taiwania3/pkg/gaussian/g16c01/g16/l1.exe "/work/an900821/Gau-239417.inp" -scrdir="/work/an900821/"
 Entering Link 1 = /opt/ohpc/Taiwania3/pkg/gaussian/g16c01/g16/l1.exe PID=    239418.
  
 Copyright (c) 1988-2019, Gaussian, Inc.  All Rights Reserved.
  
 This is part of the Gaussian(R) 16 program.  It is based on
 the Gaussian(R) 09 system (copyright 2009, Gaussian, Inc.),
 the Gaussian(R) 03 system (copyright 2003, Gaussian, Inc.),
 the Gaussian(R) 98 system (copyright 1998, Gaussian, Inc.),
 the Gaussian(R) 94 system (copyright 1995, Gaussian, Inc.),
 the Gaussian 92(TM) system (copyright 1992, Gaussian, Inc.),
 the Gaussian 90(TM) system (copyright 1990, Gaussian, Inc.),
 the Gaussian 88(TM) system (copyright 1988, Gaussian, Inc.),
 the Gaussian 86(TM) system (copyright 1986, Carnegie Mellon
 University), and the Gaussian 82(TM) system (copyright 1983,
 Carnegie Mellon University). Gaussian is a federally registered
 trademark of Gaussian, Inc.
  
 This software contains proprietary and confidential information,
 including trade secrets, belonging to Gaussian, Inc.
  
 This software is provided under written license and may be
 used, copied, transmitted, or stored only in accord with that
 written license.
  
 The following legend is applicable only to US Government
 contracts under FAR:
  
                    RESTRICTED RIGHTS LEGEND
  
 Use, reproduction and disclosure by the US Government is
 subject to restrictions as set forth in subparagraphs (a)
 and (c) of the Commercial Computer Software - Restricted
 Rights clause in FAR 52.227-19.
  
 Gaussian, Inc.
 340 Quinnipiac St., Bldg. 40, Wallingford CT 06492
  
  
 ---------------------------------------------------------------
 Warning -- This program may not be used in any manner that
 competes with the business of Gaussian, Inc. or will provide
 assistance to any competitor of Gaussian, Inc.  The licensee
 of this program is prohibited from giving any competitor of
 Gaussian, Inc. access to this program.  By using this program,
 the user acknowledges that Gaussian, Inc. is engaged in the
 business of creating and licensing software in the field of
 computational chemistry and represents and warrants to the
 licensee that it is not a competitor of Gaussian, Inc. and that
 it will not use this program in any manner prohibited above.
 ---------------------------------------------------------------
  

 Cite this work as:
 Gaussian 16, Revision C.01,
 M. J. Frisch, G. W. Trucks, H. B. Schlegel, G. E. Scuseria, 
 M. A. Robb, J. R. Cheeseman, G. Scalmani, V. Barone, 
 G. A. Petersson, H. Nakatsuji, X. Li, M. Caricato, A. V. Marenich, 
 J. Bloino, B. G. Janesko, R. Gomperts, B. Mennucci, H. P. Hratchian, 
 J. V. Ortiz, A. F. Izmaylov, J. L. Sonnenberg, D. Williams-Young, 
 F. Ding, F. Lipparini, F. Egidi, J. Goings, B. Peng, A. Petrone, 
 T. Henderson, D. Ranasinghe, V. G. Zakrzewski, J. Gao, N. Rega, 
 G. Zheng, W. Liang, M. Hada, M. Ehara, K. Toyota, R. Fukuda, 
 J. Hasegawa, M. Ishida, T. Nakajima, Y. Honda, O. Kitao, H. Nakai, 
 T. Vreven, K. Throssell, J. A. Montgomery, Jr., J. E. Peralta, 
 F. Ogliaro, M. J. Bearpark, J. J. Heyd, E. N. Brothers, K. N. Kudin, 
 V. N. Staroverov, T. A. Keith, R. Kobayashi, J. Normand, 
 K. Raghavachari, A. P. Rendell, J. C. Burant, S. S. Iyengar, 
 J. Tomasi, M. Cossi, J. M. Millam, M. Klene, C. Adamo, R. Cammi, 
 J. W. Ochterski, R. L. Martin, K. Morokuma, O. Farkas, 
 J. B. Foresman, and D. J. Fox, Gaussian, Inc., Wallingford CT, 2019.
 
 ******************************************
 Gaussian 16:  ES64L-G16RevC.01  3-Jul-2019
                 5-Sep-2023 
 ******************************************
 %nprocs=56
 Will use up to   56 processors via shared memory.
 %mem=8GB
 %chk=lig.chk
 ---------------------------------------------
 #p wB97XD/6-311++G(d,p) SCF=QC opt=tight freq
 ---------------------------------------------
 1/7=10,18=20,19=15,26=3,38=1/1,3;
 2/9=110,12=2,17=6,18=5,40=1/2;
 3/5=4,6=6,7=1111,11=2,25=1,30=1,71=1,74=-58/1,2,3;
 4//1;
 5/5=2,8=3,38=5/8;
 6/7=2,8=2,9=2,10=2,28=1/1;
 7//1,2,3,16;
 1/7=10,18=20,19=15,26=3/3(2);
 2/9=110/2;
 99//99;
 2/9=110/2;
 3/5=4,6=6,7=1111,11=2,25=1,30=1,71=1,74=-58/1,2,3;
 4/5=5,16=3,69=1/1;
 5/5=2,8=3,38=5/8;
 7//1,2,3,16;
 1/7=10,18=20,19=15,26=3/3(-5);
 2/9=110/2;
 6/7=2,8=2,9=2,10=2,19=2,28=1/1;
 99/9=1/99;
 Leave Link    1 at Tue Sep  5 13:24:37 2023, MaxMem=  1073741824 cpu:              36.9 elap:               0.7
 (Enter /opt/ohpc/Taiwania3/pkg/gaussian/g16c01/g16/l101.exe)
 ------
 ligand
 ------
 Symbolic Z-matrix:
 Charge =  0 Multiplicity = 1
 C                     1.        1.        0. 
 C                    -0.399     1.        0. 
 C                     1.7      -0.212     0. 
 H                     1.541     1.937     0. 
 C                    -1.099    -0.212     0. 
 H                    -0.94      1.937     0. 
 C                    -0.399    -1.423     0. 
 H                    -2.181    -0.212     0. 
 C                     1.       -1.423     0. 
 H                    -0.94     -2.361     0. 
 H                     1.541    -2.361     0. 
 H                     2.782    -0.212     0. 
 
 ITRead=  0  0  0  0  0  0  0  0  0  0  0  0
 MicOpt= -1 -1 -1 -1 -1 -1 -1 -1 -1 -1 -1 -1
 NAtoms=     12 NQM=       12 NQMF=       0 NMMI=      0 NMMIF=      0
                NMic=       0 NMicF=      0.
                    Isotopes and Nuclear Properties:
 (Nuclear quadrupole moments (NQMom) in fm**2, nuclear magnetic moments (NMagM)
  in nuclear magnetons)

  Atom         1           2           3           4           5           6           7           8           9          10
 IAtWgt=          12          12          12           1          12           1          12           1          12           1
 AtmWgt=  12.0000000  12.0000000  12.0000000   1.0078250  12.0000000   1.0078250  12.0000000   1.0078250  12.0000000   1.0078250
 NucSpn=           0           0           0           1           0           1           0           1           0           1
 AtZEff=  -0.0000000  -0.0000000  -0.0000000  -0.0000000  -0.0000000  -0.0000000  -0.0000000  -0.0000000  -0.0000000  -0.0000000
 NQMom=    0.0000000   0.0000000   0.0000000   0.0000000   0.0000000   0.0000000   0.0000000   0.0000000   0.0000000   0.0000000
 NMagM=    0.0000000   0.0000000   0.0000000   2.7928460   0.0000000   2.7928460   0.0000000   2.7928460   0.0000000   2.7928460
 AtZNuc=   6.0000000   6.0000000   6.0000000   1.0000000   6.0000000   1.0000000   6.0000000   1.0000000   6.0000000   1.0000000

  Atom        11          12
 IAtWgt=           1           1
 AtmWgt=   1.0078250   1.0078250
 NucSpn=           1           1
 AtZEff=  -0.0000000  -0.0000000
 NQMom=    0.0000000   0.0000000
 NMagM=    2.7928460   2.7928460
 AtZNuc=   1.0000000   1.0000000
 Leave Link  101 at Tue Sep  5 13:24:37 2023, MaxMem=  1073741824 cpu:              16.1 elap:               0.3
 (Enter /opt/ohpc/Taiwania3/pkg/gaussian/g16c01/g16/l103.exe)

 GradGradGradGradGradGradGradGradGradGradGradGradGradGradGradGradGradGrad
 Berny optimization.
 Initialization pass.
                           ----------------------------
                           !    Initial Parameters    !
                           ! (Angstroms and Degrees)  !
 --------------------------                            --------------------------
 ! Name  Definition              Value          Derivative Info.                !
 --------------------------------------------------------------------------------
 ! R1    R(1,2)                  1.399          estimate D2E/DX2                !
 ! R2    R(1,3)                  1.3996         estimate D2E/DX2                !
 ! R3    R(1,4)                  1.082          estimate D2E/DX2                !
 ! R4    R(2,5)                  1.3996         estimate D2E/DX2                !
 ! R5    R(2,6)                  1.082          estimate D2E/DX2                !
 ! R6    R(3,9)                  1.3988         estimate D2E/DX2                !
 ! R7    R(3,12)                 1.082          estimate D2E/DX2                !
 ! R8    R(5,7)                  1.3988         estimate D2E/DX2                !
 ! R9    R(5,8)                  1.082          estimate D2E/DX2                !
 ! R10   R(7,9)                  1.399          estimate D2E/DX2                !
 ! R11   R(7,10)                 1.0828         estimate D2E/DX2                !
 ! R12   R(9,11)                 1.0828         estimate D2E/DX2                !
 ! A1    A(2,1,3)              120.0089         estimate D2E/DX2                !
 ! A2    A(2,1,4)              120.001          estimate D2E/DX2                !
 ! A3    A(3,1,4)              119.99           estimate D2E/DX2                !
 ! A4    A(1,2,5)              120.0089         estimate D2E/DX2                !
 ! A5    A(1,2,6)              120.001          estimate D2E/DX2                !
 ! A6    A(5,2,6)              119.99           estimate D2E/DX2                !
 ! A7    A(1,3,9)              119.9617         estimate D2E/DX2                !
 ! A8    A(1,3,12)             120.0089         estimate D2E/DX2                !
 ! A9    A(9,3,12)             120.0294         estimate D2E/DX2                !
 ! A10   A(2,5,7)              119.9617         estimate D2E/DX2                !
 ! A11   A(2,5,8)              120.0089         estimate D2E/DX2                !
 ! A12   A(7,5,8)              120.0294         estimate D2E/DX2                !
 ! A13   A(5,7,9)              120.0294         estimate D2E/DX2                !
 ! A14   A(5,7,10)             119.996          estimate D2E/DX2                !
 ! A15   A(9,7,10)             119.9746         estimate D2E/DX2                !
 ! A16   A(3,9,7)              120.0294         estimate D2E/DX2                !
 ! A17   A(3,9,11)             119.996          estimate D2E/DX2                !
 ! A18   A(7,9,11)             119.9746         estimate D2E/DX2                !
 ! D1    D(3,1,2,5)              0.0            estimate D2E/DX2                !
 ! D2    D(3,1,2,6)            180.0            estimate D2E/DX2                !
 ! D3    D(4,1,2,5)            180.0            estimate D2E/DX2                !
 ! D4    D(4,1,2,6)              0.0            estimate D2E/DX2                !
 ! D5    D(2,1,3,9)              0.0            estimate D2E/DX2                !
 ! D6    D(2,1,3,12)           180.0            estimate D2E/DX2                !
 ! D7    D(4,1,3,9)            180.0            estimate D2E/DX2                !
 ! D8    D(4,1,3,12)             0.0            estimate D2E/DX2                !
 ! D9    D(1,2,5,7)              0.0            estimate D2E/DX2                !
 ! D10   D(1,2,5,8)            180.0            estimate D2E/DX2                !
 ! D11   D(6,2,5,7)            180.0            estimate D2E/DX2                !
 ! D12   D(6,2,5,8)              0.0            estimate D2E/DX2                !
 ! D13   D(1,3,9,7)              0.0            estimate D2E/DX2                !
 ! D14   D(1,3,9,11)           180.0            estimate D2E/DX2                !
 ! D15   D(12,3,9,7)           180.0            estimate D2E/DX2                !
 ! D16   D(12,3,9,11)            0.0            estimate D2E/DX2                !
 ! D17   D(2,5,7,9)              0.0            estimate D2E/DX2                !
 ! D18   D(2,5,7,10)           180.0            estimate D2E/DX2                !
 ! D19   D(8,5,7,9)            180.0            estimate D2E/DX2                !
 ! D20   D(8,5,7,10)             0.0            estimate D2E/DX2                !
 ! D21   D(5,7,9,3)              0.0            estimate D2E/DX2                !
 ! D22   D(5,7,9,11)           180.0            estimate D2E/DX2                !
 ! D23   D(10,7,9,3)           180.0            estimate D2E/DX2                !
 ! D24   D(10,7,9,11)            0.0            estimate D2E/DX2                !
 --------------------------------------------------------------------------------
 Trust Radius=3.00D-01 FncErr=1.00D-07 GrdErr=1.00D-06 EigMax=2.50D+02 EigMin=1.00D-04
 Number of steps in this run=     64 maximum allowed number of steps=    100.
 GradGradGradGradGradGradGradGradGradGradGradGradGradGradGradGradGradGrad

 Leave Link  103 at Tue Sep  5 13:24:38 2023, MaxMem=  1073741824 cpu:               1.4 elap:               0.1
 (Enter /opt/ohpc/Taiwania3/pkg/gaussian/g16c01/g16/l202.exe)
                          Input orientation:                          
 ---------------------------------------------------------------------
 Center     Atomic      Atomic             Coordinates (Angstroms)
 Number     Number       Type             X           Y           Z
 ---------------------------------------------------------------------
      1          6           0        1.000000    1.000000    0.000000
      2          6           0       -0.399000    1.000000    0.000000
      3          6           0        1.700000   -0.212000    0.000000
      4          1           0        1.541000    1.937000    0.000000
      5          6           0       -1.099000   -0.212000    0.000000
      6          1           0       -0.940000    1.937000    0.000000
      7          6           0       -0.399000   -1.423000    0.000000
      8          1           0       -2.181000   -0.212000    0.000000
      9          6           0        1.000000   -1.423000    0.000000
     10          1           0       -0.940000   -2.361000    0.000000
     11          1           0        1.541000   -2.361000    0.000000
     12          1           0        2.782000   -0.212000    0.000000
 ---------------------------------------------------------------------
                    Distance matrix (angstroms):
                    1          2          3          4          5
     1  C    0.000000
     2  C    1.399000   0.000000
     3  C    1.399623   2.423787   0.000000
     4  H    1.081966   2.154430   2.154874   0.000000
     5  C    2.423787   1.399623   2.799000   3.404086   0.000000
     6  H    2.154430   1.081966   3.404086   2.481000   2.154874
     7  C    2.797880   2.423000   2.423287   3.879845   1.398757
     8  H    3.404072   2.155103   3.881000   4.297847   1.082000
     9  C    2.423000   2.797880   1.398757   3.403275   2.423287
    10  H    3.880711   3.404262   3.404086   4.962677   2.154874
    11  H    3.404262   3.880711   2.154874   4.298000   3.404086
    12  H    2.155103   3.404072   1.082000   2.481589   3.881000
                    6          7          8          9         10
     6  H    0.000000
     7  C    3.403275   0.000000
     8  H    2.481589   2.154541   0.000000
     9  C    3.879845   1.399000   3.403716   0.000000
    10  H    4.298000   1.082832   2.481589   2.154865   0.000000
    11  H    4.962677   2.154865   4.297847   1.082832   2.481000
    12  H    4.297847   3.403716   4.963000   2.154541   4.297847
                   11         12
    11  H    0.000000
    12  H    2.481589   0.000000
 Stoichiometry    C6H6
 Framework group  C2V[SGV(C6H6)]
 Deg. of freedom    11
 Full point group                 C2V     NOp   4
 Largest Abelian subgroup         C2V     NOp   4
 Largest concise Abelian subgroup C2      NOp   2
                         Standard orientation:                         
 ---------------------------------------------------------------------
 Center     Atomic      Atomic             Coordinates (Angstroms)
 Number     Number       Type             X           Y           Z
 ---------------------------------------------------------------------
      1          6           0        0.000000    0.699500    1.211714
      2          6           0       -0.000000   -0.699500    1.211714
      3          6           0        0.000000    1.399500   -0.000286
      4          1           0        0.000000    1.240500    2.148714
      5          6           0       -0.000000   -1.399500   -0.000286
      6          1           0       -0.000000   -1.240500    2.148714
      7          6           0        0.000000   -0.699500   -1.211286
      8          1           0        0.000000   -2.481500   -0.000286
      9          6           0        0.000000    0.699500   -1.211286
     10          1           0        0.000000   -1.240500   -2.149286
     11          1           0        0.000000    1.240500   -2.149286
     12          1           0        0.000000    2.481500   -0.000286
 ---------------------------------------------------------------------
 Rotational constants (GHZ):           5.6740483           5.6715081           2.8363889
 Leave Link  202 at Tue Sep  5 13:24:38 2023, MaxMem=  1073741824 cpu:               4.8 elap:               0.2
 (Enter /opt/ohpc/Taiwania3/pkg/gaussian/g16c01/g16/l301.exe)
 Standard basis: 6-311++G(d,p) (5D, 7F)
 Ernie: Thresh=  0.10000D-02 Tol=  0.10000D-05 Strict=F.
 There are    69 symmetry adapted cartesian basis functions of A1  symmetry.
 There are    21 symmetry adapted cartesian basis functions of A2  symmetry.
 There are    21 symmetry adapted cartesian basis functions of B1  symmetry.
 There are    69 symmetry adapted cartesian basis functions of B2  symmetry.
 There are    66 symmetry adapted basis functions of A1  symmetry.
 There are    21 symmetry adapted basis functions of A2  symmetry.
 There are    21 symmetry adapted basis functions of B1  symmetry.
 There are    66 symmetry adapted basis functions of B2  symmetry.
   174 basis functions,   270 primitive gaussians,   180 cartesian basis functions
    21 alpha electrons       21 beta electrons
       nuclear repulsion energy       203.0111218273 Hartrees.
 IExCor= 4639 DFT=T Ex+Corr=wB97XD ExCW=0 ScaHFX=  1.000000
 ScaDFX=  1.000000  1.000000  1.000000  1.000000 ScalE2=  1.000000  1.000000
 IRadAn=      5 IRanWt=     -1 IRanGd=            0 ICorTp=0 IEmpDi=121
 HFx  wShort=  0.000000 wLong=  0.200000 cFull=  0.222036 cShort=  0.000000 cLong=  0.777964
 DFx  wShort=  0.000000 wLong=  0.200000 cFull=  0.000000 cShort=  0.000000 cLong=  1.000000
 NAtoms=   12 NActive=   12 NUniq=    6 SFac= 4.00D+00 NAtFMM=   60 NAOKFM=F Big=F
 Integral buffers will be    131072 words long.
 Raffenetti 2 integral format.
 Two-electron integral symmetry is turned on.
 R6Disp:  Grimme-D2 Dispersion energy=       -0.0041856518 Hartrees.
 Nuclear repulsion after empirical dispersion term =      203.0069361755 Hartrees.
 Leave Link  301 at Tue Sep  5 13:24:38 2023, MaxMem=  1073741824 cpu:               7.3 elap:               0.2
 (Enter /opt/ohpc/Taiwania3/pkg/gaussian/g16c01/g16/l302.exe)
 NPDir=0 NMtPBC=     1 NCelOv=     1 NCel=       1 NClECP=     1 NCelD=      1
         NCelK=      1 NCelE2=     1 NClLst=     1 CellRange=     0.0.
 One-electron integrals computed using PRISM.
 One-electron integral symmetry used in STVInt
 NBasis=   174 RedAO= T EigKep=  1.10D-06  NBF=    66    21    21    66
 NBsUse=   174 1.00D-06 EigRej= -1.00D+00 NBFU=    66    21    21    66
 Precomputing XC quadrature grid using
 IXCGrd= 4 IRadAn=           5 IRanWt=          -1 IRanGd=           0 AccXCQ= 0.00D+00.
 Generated NRdTot=       0 NPtTot=           0 NUsed=           0 NTot=          32
 NSgBfM=   180   180   180   180   180 MxSgAt=    12 MxSgA2=    12.
 Leave Link  302 at Tue Sep  5 13:24:39 2023, MaxMem=  1073741824 cpu:              45.5 elap:               0.9
 (Enter /opt/ohpc/Taiwania3/pkg/gaussian/g16c01/g16/l303.exe)
 DipDrv:  MaxL=1.
 Leave Link  303 at Tue Sep  5 13:24:39 2023, MaxMem=  1073741824 cpu:               3.4 elap:               0.2
 (Enter /opt/ohpc/Taiwania3/pkg/gaussian/g16c01/g16/l401.exe)
 ExpMin= 3.60D-02 ExpMax= 4.56D+03 ExpMxC= 6.82D+02 IAcc=3 IRadAn=         5 AccDes= 0.00D+00
 Harris functional with IExCor= 4639 and IRadAn=       5 diagonalized for initial guess.
 HarFok:  IExCor= 4639 AccDes= 0.00D+00 IRadAn=         5 IDoV= 1 UseB2=F ITyADJ=14
 ICtDFT=  3500011 ScaDFX=  1.000000  1.000000  1.000000  1.000000
 FoFCou: FMM=F IPFlag=           0 FMFlag=      100000 FMFlg1=           0
         NFxFlg=           0 DoJE=T BraDBF=F KetDBF=T FulRan=T
         wScrn=  0.000000 ICntrl=       500 IOpCl=  0 I1Cent=   200000004 NGrid=           0
         NMat0=    1 NMatS0=      1 NMatT0=    0 NMatD0=    1 NMtDS0=    0 NMtDT0=    0
 Petite list used in FoFCou.
 Harris En= -221.417625078262    
 JPrj=0 DoOrth=F DoCkMO=F.
 Initial guess orbital symmetries:
       Occupied  (A1) (B2) (A1) (A1) (B2) (B2) (A1) (B2) (A1) (A1)
                 (B2) (A1) (A1) (B2) (B2) (A1) (B1) (A1) (B2) (B1)
                 (A2)
       Virtual   (B1) (A2) (A1) (A1) (B2) (A1) (B2) (B2) (B1) (A1)
                 (B1) (A2) (A1) (A1) (A2) (A1) (B2) (B2) (A1) (B1)
                 (A2) (B2) (A1) (B2) (A1) (B2) (A2) (A1) (B2) (A1)
                 (B2) (A1) (B2) (A1) (B2) (B2) (A1) (B2) (B2) (B2)
                 (A1) (A1) (B2) (A1) (A1) (B1) (B2) (B2) (A1) (B2)
                 (A1) (B2) (B1) (A2) (A1) (B1) (A2) (A2) (B2) (A1)
                 (A1) (B2) (A1) (B2) (A1) (B2) (B2) (B2) (B2) (A1)
                 (A1) (B2) (B1) (B1) (A1) (B2) (A2) (B1) (B1) (A2)
                 (A1) (B2) (A1) (B2) (A1) (A1) (A2) (B1) (A2) (B2)
                 (A1) (B2) (A1) (B1) (B1) (A2) (A1) (B2) (A1) (B1)
                 (A2) (B2) (A1) (B2) (B2) (A1) (B2) (A2) (B1) (A2)
                 (A2) (A1) (A1) (B2) (A1) (B2) (A1) (B2) (B1) (B2)
                 (A1) (B2) (A1) (A1) (B2) (B1) (A2) (B2) (A2) (B1)
                 (B2) (B2) (A1) (A2) (A1) (B2) (A1) (A1) (B2) (A1)
                 (B2) (B2) (A1) (B2) (A1) (B2) (B2) (A1) (A1) (B2)
                 (A1) (B2) (B2)
 The electronic state of the initial guess is 1-A1.
 Leave Link  401 at Tue Sep  5 13:24:40 2023, MaxMem=  1073741824 cpu:              14.4 elap:               0.3
 (Enter /opt/ohpc/Taiwania3/pkg/gaussian/g16c01/g16/l508.exe)
 Keep R1 ints in memory in symmetry-blocked form, NReq=294100597.
 FoFCou: FMM=F IPFlag=           0 FMFlag=           0 FMFlg1=           0
         NFxFlg=           0 DoJE=F BraDBF=F KetDBF=F FulRan=T
         wScrn=  0.000000 ICntrl=       600 IOpCl=  0 I1Cent=           0 NGrid=           0
         NMat0=    1 NMatS0=  15225 NMatT0=    0 NMatD0=    1 NMtDS0=    0 NMtDT0=    0
 Petite list used in FoFCou.
 Tight linear equation convergence will be used.
 RwB97XD wavefunction.
 Quadratic Convergence SCF Method.
 Line search only if initial step raises energy.
 Iteration   1 EE= -232.171783925325                                    Grad=9.740D-01 Max rot=   14.4371 deg.
 Gradient too large for Newton-Raphson -- use scaled steepest descent instead.
 Alpha Gap=     0.382 HL deriv= 4.86D-17
     ILin= 1 X=0.000D+00 Y=-2.321717839253D+02 DE= 0.00D+00 F= -1.10D-01
     ILin= 2 X=3.000D-01 Y=-2.321989552239D+02 DE=-2.72D-02 F= -7.07D-02 OKLS=F
     ILin= 3 X=6.000D-01 Y=-2.322141662264D+02 DE=-4.24D-02 F= -3.07D-02
     ILin= 4 X=1.200D+00 Y=-2.322085782842D+02 DE=-3.68D-02 F=  4.94D-02
     An  expanding polynomial of degree  4 produced  0.8304
 Iteration   2 EE= -232.217706902182     Delta-E=       -0.045922976856 Grad=1.475D-01 Max rot=    1.9136 deg.
 Gradient too large for Newton-Raphson -- use scaled steepest descent instead.
 Alpha Gap=     0.387 HL deriv= 7.13D-17
     ILin= 1 X=0.000D+00 Y=-2.322177069022D+02 DE= 0.00D+00 F= -8.66D-03
     ILin= 2 X=5.000D-01 Y=-2.322202937484D+02 DE=-2.59D-03 F= -1.70D-03 OKLS=F
     ILin= 3 X=1.000D+00 Y=-2.322194096115D+02 DE=-1.70D-03 F=  5.23D-03
     An  expanding polynomial of degree  3 produced  0.6226
 Iteration   3 EE= -232.220397352828     Delta-E=       -0.002690450646 Grad=4.477D-02 Max rot=    0.6126 deg.
 Gradient too large for Newton-Raphson -- use scaled steepest descent instead.
 Alpha Gap=     0.386 HL deriv= 2.88D-18
     ILin= 1 X=0.000D+00 Y=-2.322203973528D+02 DE= 0.00D+00 F= -4.68D-04
     ILin= 2 X=7.000D-01 Y=-2.322205952516D+02 DE=-1.98D-04 F= -9.77D-05 OKLS=T
     Reject lnstep IMin12=  1  2 Big=T Turn=F Min= 1.246D+00 FVal=-2.322206543823D+02 Lims=  0.00D+00  7.00D-01
     ILin= 3 X=1.400D+00 Y=-2.322205339897D+02 DE=-1.37D-04 F=  2.73D-04
     An  expanding polynomial of degree  3 produced  0.8845
 Iteration   4 EE= -232.220604267023     Delta-E=       -0.000206914195 Grad=6.874D-03 Max rot=    0.0560 deg.
 QCNR:  CnvC1=8.02D-09 CnvC2=8.02D-08
 LinEq1:  Iter=  0 NonCon=     1 RMS=7.22D-05 Max=1.44D-03 NDo=     1
 AX will form     1 AO Fock derivatives at one time.
 LinEq1:  Iter=  1 NonCon=     1 RMS=3.13D-05 Max=5.67D-04 NDo=     1
 LinEq1:  Iter=  2 NonCon=     1 RMS=2.08D-06 Max=4.08D-05 NDo=     1
 LinEq1:  Iter=  3 NonCon=     1 RMS=7.84D-07 Max=2.27D-05 NDo=     1
 LinEq1:  Iter=  4 NonCon=     1 RMS=2.73D-07 Max=3.10D-06 NDo=     1
 LinEq1:  Iter=  5 NonCon=     1 RMS=3.35D-08 Max=4.78D-07 NDo=     1
 LinEq1:  Iter=  6 NonCon=     1 RMS=1.69D-08 Max=3.67D-07 NDo=     1
 LinEq1:  Iter=  7 NonCon=     1 RMS=5.86D-09 Max=1.79D-07 NDo=     1
 LinEq1:  Iter=  8 NonCon=     0 RMS=1.36D-09 Max=2.24D-08 NDo=     1
 Linear equations converged to 8.016D-09 8.016D-08 after     8 iterations.
 Angle between quadratic step and gradient=  48.63 degrees.
     ILin= 1 X=0.000D+00 Y=-2.322206042670D+02 DE= 0.00D+00 F= -4.55D-05
     ILin= 2 X=1.000D+00 Y=-2.322206270379D+02 DE=-2.28D-05 F= -4.64D-08 OKLS=T
     Reject lnstep IMin12=  1  2 Big=T Turn=F Min= 1.001D+00 FVal=-2.322206270379D+02 Lims=  0.00D+00  1.00D+00
     ILin= 3 X=2.000D+00 Y=-2.322206043908D+02 DE=-1.24D-07 F=  4.53D-05
     An  expanding polynomial of degree  3 produced  1.0014
     Minimum is close to point  2 DX=  1.36D-03 DF= -4.21D-11 DXR=  1.36D-03 DFR=  1.85D-06 which will be used.
 Iteration   5 EE= -232.220627037908     Delta-E=       -0.000022770885 Grad=5.684D-06 Max rot=    0.0001 deg.
 QCNR:  CnvC1=5.68D-11 CnvC2=5.68D-10
 LinEq1:  Iter=  0 NonCon=     1 RMS=1.09D-07 Max=3.23D-06 NDo=     1
 LinEq1:  Iter=  1 NonCon=     1 RMS=4.29D-08 Max=5.83D-07 NDo=     1
 LinEq1:  Iter=  2 NonCon=     1 RMS=6.89D-09 Max=8.38D-08 NDo=     1
 LinEq1:  Iter=  3 NonCon=     1 RMS=1.75D-09 Max=2.21D-08 NDo=     1
 LinEq1:  Iter=  4 NonCon=     1 RMS=2.18D-10 Max=5.19D-09 NDo=     1
 LinEq1:  Iter=  5 NonCon=     1 RMS=1.39D-10 Max=4.24D-09 NDo=     1
 LinEq1:  Iter=  6 NonCon=     1 RMS=2.60D-11 Max=7.67D-10 NDo=     1
 LinEq1:  Iter=  7 NonCon=     0 RMS=7.39D-12 Max=1.60D-10 NDo=     1
 Linear equations converged to 5.684D-11 5.684D-10 after     7 iterations.
 Angle between quadratic step and gradient=  33.05 degrees.
     ILin= 1 X=0.000D+00 Y=-2.322206270379D+02 DE= 0.00D+00 F= -9.33D-11
     ILin= 2 X=1.000D+00 Y=-2.322206270380D+02 DE=-4.78D-11
 Iteration   6 EE= -232.220627037956     Delta-E=       -0.000000000048 Grad=1.585D-09 Max rot=    0.0000 deg.
 Rotation gradient small -- convergence achieved.
 Orbital symmetries in SymMO:
    1=1    2=4    3=1    4=1    5=4    6=4    7=1    8=4    9=1   10=1
   11=4   12=1   13=4   14=1   15=4   16=1   17=3   18=1   19=4   20=3
   21=2   22=1   23=3   24=4   25=1   26=2   27=1   28=4   29=4   30=3
   31=1   32=2   33=3   34=1   35=1   36=4   37=1   38=1   39=4   40=2
   41=3   42=2   43=4   44=1   45=4   46=4   47=1   48=1   49=4   50=2
   51=1   52=4   53=1   54=4   55=4   56=1   57=4   58=4   59=1   60=4
   61=4   62=1   63=1   64=4   65=1   66=1   67=3   68=4   69=1   70=4
   71=4   72=1   73=4   74=3   75=2   76=1   77=3   78=2   79=2   80=4
   81=1   82=1   83=4   84=1   85=4   86=1   87=4   88=4   89=4   90=4
   91=1   92=1   93=4   94=3   95=3   96=1   97=4   98=2   99=3  100=3
  101=2  102=1  103=4  104=1  105=4  106=1  107=1  108=2  109=2  110=3
  111=4  112=1  113=4  114=1  115=3  116=3  117=2  118=1  119=4  120=1
  121=3  122=2  123=4  124=1  125=4  126=4  127=1  128=4  129=2  130=3
  131=2  132=2  133=1  134=1  135=4  136=1  137=4  138=1  139=4  140=4
  141=3  142=1  143=4  144=1  145=1  146=4  147=4  148=3  149=2  150=2
  151=3  152=4  153=4  154=1  155=2  156=1  157=4  158=1  159=1  160=4
  161=1  162=4  163=4  164=1  165=4  166=1  167=4  168=4  169=1  170=1
  171=4  172=1  173=4  174=4
 SCF Done:  E(RwB97XD) =  -232.220627038     a.u. after    6 cycles
            Convg  =    0.1585D-08                    29 Fock formations.
              S**2 =  0.0000                  -V/T =  2.0049
 Leave Link  508 at Tue Sep  5 13:24:45 2023, MaxMem=  1073741824 cpu:             244.8 elap:               5.4
 (Enter /opt/ohpc/Taiwania3/pkg/gaussian/g16c01/g16/l601.exe)
 Copying SCF densities to generalized density rwf, IOpCl= 0 IROHF=0.

 **********************************************************************

            Population analysis using the SCF Density.

 **********************************************************************

 Orbital symmetries:
       Occupied  (A1) (B2) (A1) (A1) (B2) (B2) (A1) (B2) (A1) (A1)
                 (B2) (A1) (B2) (A1) (B2) (A1) (B1) (A1) (B2) (B1)
                 (A2)
       Virtual   (A1) (B1) (B2) (A1) (A2) (A1) (B2) (B2) (B1) (A1)
                 (A2) (B1) (A1) (A1) (B2) (A1) (A1) (B2) (A2) (B1)
                 (A2) (B2) (A1) (B2) (B2) (A1) (A1) (B2) (A2) (A1)
                 (B2) (A1) (B2) (B2) (A1) (B2) (B2) (A1) (B2) (B2)
                 (A1) (A1) (B2) (A1) (A1) (B1) (B2) (A1) (B2) (B2)
                 (A1) (B2) (B1) (A2) (A1) (B1) (A2) (A2) (B2) (A1)
                 (A1) (B2) (A1) (B2) (A1) (B2) (B2) (B2) (B2) (A1)
                 (A1) (B2) (B1) (B1) (A1) (B2) (A2) (B1) (B1) (A2)
                 (A1) (B2) (A1) (B2) (A1) (A1) (A2) (A2) (B1) (B2)
                 (A1) (B2) (A1) (B1) (B1) (A2) (A1) (B2) (A1) (B1)
                 (A2) (B2) (A1) (B2) (B2) (A1) (B2) (A2) (B1) (A2)
                 (A2) (A1) (A1) (B2) (A1) (B2) (A1) (B2) (B2) (B1)
                 (A1) (B2) (A1) (A1) (B2) (B2) (B1) (A2) (A2) (B1)
                 (B2) (B2) (A1) (A2) (A1) (B2) (A1) (A1) (B2) (A1)
                 (B2) (B2) (A1) (B2) (A1) (B2) (B2) (A1) (A1) (B2)
                 (A1) (B2) (B2)
 The electronic state is 1-A1.
 Alpha  occ. eigenvalues --  -10.29279 -10.29255 -10.29255 -10.29198 -10.29198
 Alpha  occ. eigenvalues --  -10.29171  -0.95776  -0.84816  -0.84813  -0.70006
 Alpha  occ. eigenvalues --   -0.69993  -0.61809  -0.55450  -0.53579  -0.51052
 Alpha  occ. eigenvalues --   -0.51038  -0.45893  -0.42941  -0.42920  -0.33264
 Alpha  occ. eigenvalues --   -0.33264
 Alpha virt. eigenvalues --    0.04271   0.05169   0.05171   0.05171   0.05178
 Alpha virt. eigenvalues --    0.06939   0.06939   0.09133   0.12249   0.13725
 Alpha virt. eigenvalues --    0.14789   0.14790   0.15954   0.16822   0.17209
 Alpha virt. eigenvalues --    0.17210   0.17229   0.17230   0.19389   0.19559
 Alpha virt. eigenvalues --    0.19560   0.20733   0.20988   0.20989   0.21150
 Alpha virt. eigenvalues --    0.21151   0.25014   0.25015   0.26477   0.28083
 Alpha virt. eigenvalues --    0.28084   0.29544   0.30778   0.33336   0.34399
 Alpha virt. eigenvalues --    0.34407   0.36053   0.36057   0.38208   0.42428
 Alpha virt. eigenvalues --    0.42429   0.42865   0.42877   0.52523   0.54418
 Alpha virt. eigenvalues --    0.60580   0.61781   0.62804   0.62808   0.63002
 Alpha virt. eigenvalues --    0.64334   0.64339   0.65080   0.65083   0.68985
 Alpha virt. eigenvalues --    0.69767   0.69768   0.75596   0.80733   0.80741
 Alpha virt. eigenvalues --    0.81766   0.81780   0.86234   0.89121   0.92117
 Alpha virt. eigenvalues --    0.92120   0.95682   0.95958   0.95983   0.95983
 Alpha virt. eigenvalues --    0.97954   0.97963   1.01891   1.09182   1.10280
 Alpha virt. eigenvalues --    1.10283   1.15957   1.15974   1.22052   1.22063
 Alpha virt. eigenvalues --    1.39062   1.40632   1.53824   1.59628   1.59655
 Alpha virt. eigenvalues --    1.60618   1.65066   1.65353   1.65361   1.72256
 Alpha virt. eigenvalues --    1.72269   1.74458   1.74486   1.80335   1.86096
 Alpha virt. eigenvalues --    1.86106   1.90257   1.90283   1.93486   2.00883
 Alpha virt. eigenvalues --    2.00924   2.03080   2.03096   2.04945   2.07690
 Alpha virt. eigenvalues --    2.10967   2.10976   2.16452   2.16473   2.40740
 Alpha virt. eigenvalues --    2.42062   2.48174   2.50375   2.50381   2.54627
 Alpha virt. eigenvalues --    2.54633   2.70873   2.70892   2.75415   2.75860
 Alpha virt. eigenvalues --    2.77476   2.80861   2.80876   2.83660   2.83670
 Alpha virt. eigenvalues --    2.87775   2.89853   2.89867   2.99544   2.99548
 Alpha virt. eigenvalues --    2.99702   3.03898   3.03928   3.17937   3.20129
 Alpha virt. eigenvalues --    3.43535   3.43558   3.57779   3.57784   3.59689
 Alpha virt. eigenvalues --    3.76180   4.09606   4.09658   4.17981   4.25507
 Alpha virt. eigenvalues --    4.25548   4.93496  23.72582  24.09677  24.09735
 Alpha virt. eigenvalues --   24.21036  24.21068  24.31874
          Condensed to atoms (all electrons):
               1          2          3          4          5          6
     1  C    5.410934   0.079734   0.077905   0.344214   0.355081   0.001154
     2  C    0.079734   5.410934   0.355081   0.001154   0.077905   0.344214
     3  C    0.077905   0.355081   5.414704   0.001014  -0.408429  -0.015709
     4  H    0.344214   0.001154   0.001014   0.470120  -0.015709   0.001908
     5  C    0.355081   0.077905  -0.408429  -0.015709   5.414704   0.001014
     6  H    0.001154   0.344214  -0.015709   0.001908   0.001014   0.470120
     7  C   -0.407581   0.355325   0.357058   0.012367   0.076501  -0.015724
     8  H   -0.015688   0.001186   0.012287  -0.000572   0.344104   0.001930
     9  C    0.355325  -0.407581   0.076501  -0.015724   0.357058   0.012367
    10  H    0.012264  -0.015592  -0.015620   0.000793   0.001042  -0.000564
    11  H   -0.015592   0.012264   0.001042  -0.000564  -0.015620   0.000793
    12  H    0.001186  -0.015688   0.344104   0.001930   0.012287  -0.000572
               7          8          9         10         11         12
     1  C   -0.407581  -0.015688   0.355325   0.012264  -0.015592   0.001186
     2  C    0.355325   0.001186  -0.407581  -0.015592   0.012264  -0.015688
     3  C    0.357058   0.012287   0.076501  -0.015620   0.001042   0.344104
     4  H    0.012367  -0.000572  -0.015724   0.000793  -0.000564   0.001930
     5  C    0.076501   0.344104   0.357058   0.001042  -0.015620   0.012287
     6  H   -0.015724   0.001930   0.012367  -0.000564   0.000793  -0.000572
     7  C    5.414310   0.001258   0.075430   0.344054   0.001062  -0.015670
     8  H    0.001258   0.469908  -0.015670   0.001913  -0.000567   0.000790
     9  C    0.075430  -0.015670   5.414310   0.001062   0.344054   0.001258
    10  H    0.344054   0.001913   0.001062   0.470213   0.001924  -0.000567
    11  H    0.001062  -0.000567   0.344054   0.001924   0.470213   0.001913
    12  H   -0.015670   0.000790   0.001258  -0.000567   0.001913   0.469908
 Mulliken charges:
               1
     1  C   -0.198935
     2  C   -0.198935
     3  C   -0.199939
     4  H    0.199067
     5  C   -0.199939
     6  H    0.199067
     7  C   -0.198389
     8  H    0.199121
     9  C   -0.198389
    10  H    0.199076
    11  H    0.199076
    12  H    0.199121
 Sum of Mulliken charges =  -0.00000
 Mulliken charges with hydrogens summed into heavy atoms:
               1
     1  C    0.000132
     2  C    0.000132
     3  C   -0.000818
     5  C   -0.000818
     7  C    0.000687
     9  C    0.000687
 Electronic spatial extent (au):  <R**2>=            460.3888
 Charge=             -0.0000 electrons
 Dipole moment (field-independent basis, Debye):
    X=              0.0000    Y=             -0.0000    Z=              0.0005  Tot=              0.0005
 Quadrupole moment (field-independent basis, Debye-Ang):
   XX=            -40.2765   YY=            -31.5071   ZZ=            -31.5148
   XY=              0.0000   XZ=             -0.0000   YZ=              0.0000
 Traceless Quadrupole moment (field-independent basis, Debye-Ang):
   XX=             -5.8437   YY=              2.9257   ZZ=              2.9180
   XY=              0.0000   XZ=             -0.0000   YZ=              0.0000
 Octapole moment (field-independent basis, Debye-Ang**2):
  XXX=              0.0000  YYY=             -0.0000  ZZZ=              0.0035  XYY=              0.0000
  XXY=              0.0000  XXZ=              0.0009  XZZ=              0.0000  YZZ=              0.0000
  YYZ=              0.0064  XYZ=              0.0000
 Hexadecapole moment (field-independent basis, Debye-Ang**3):
 XXXX=            -48.8684 YYYY=           -270.1373 ZZZZ=           -270.1274 XXXY=             -0.0000
 XXXZ=              0.0000 YYYX=             -0.0000 YYYZ=             -0.0000 ZZZX=              0.0000
 ZZZY=              0.0000 XXYY=            -64.7611 XXZZ=            -64.7505 YYZZ=            -90.0618
 XXYZ=              0.0000 YYXZ=              0.0000 ZZXY=             -0.0000
 N-N= 2.030069361755D+02 E-N=-9.443607492211D+02  KE= 2.310805902265D+02
 Symmetry A1   KE= 1.149931837058D+02
 Symmetry A2   KE= 2.207568799126D+00
 Symmetry B1   KE= 4.061941576348D+00
 Symmetry B2   KE= 1.098178961452D+02
 No NMR shielding tensors so no spin-rotation constants.
 Leave Link  601 at Tue Sep  5 13:24:46 2023, MaxMem=  1073741824 cpu:              16.2 elap:               0.5
 (Enter /opt/ohpc/Taiwania3/pkg/gaussian/g16c01/g16/l701.exe)
 ... and contract with generalized density number  0.
 Compute integral first derivatives.
 R6Disp: Adding Grimme-D2 dispersion energy 1st derivatives to the gradient.
 Leave Link  701 at Tue Sep  5 13:24:47 2023, MaxMem=  1073741824 cpu:               7.9 elap:               0.2
 (Enter /opt/ohpc/Taiwania3/pkg/gaussian/g16c01/g16/l702.exe)
 L702 exits ... SP integral derivatives will be done elsewhere.
 Leave Link  702 at Tue Sep  5 13:24:47 2023, MaxMem=  1073741824 cpu:               1.1 elap:               0.0
 (Enter /opt/ohpc/Taiwania3/pkg/gaussian/g16c01/g16/l703.exe)
 Integral derivatives from FoFJK, PRISM(SPDF).
 Compute integral first derivatives, UseDBF=F ICtDFT=           0.
 Calling FoFJK, ICntrl=      2127 FMM=F ISym2X=1 I1Cent= 0 IOpClX= 0 NMat=1 NMatS=1 NMatT=0.
 FoFJK:  IHMeth= 1 ICntrl=    2127 DoSepK=T KAlg= 0 I1Cent=           0 FoldK=F
 IRaf=         1 NMat=       1 IRICut=       1 DoRegI=T DoRafI=F ISym2E= 1 IDoP0=0 IntGTp=1.
 FoFCou: FMM=F IPFlag=           0 FMFlag=      100000 FMFlg1=         800
         NFxFlg=           0 DoJE=F BraDBF=F KetDBF=F FulRan=T
         wScrn=  0.000000 ICntrl=      2527 IOpCl=  0 I1Cent=           0 NGrid=           0
         NMat0=    1 NMatS0=      1 NMatT0=    0 NMatD0=    1 NMtDS0=    0 NMtDT0=    0
 Petite list used in FoFCou.
 Leave Link  703 at Tue Sep  5 13:24:47 2023, MaxMem=  1073741824 cpu:              27.3 elap:               0.5
 (Enter /opt/ohpc/Taiwania3/pkg/gaussian/g16c01/g16/l716.exe)
 Dipole        = 8.61911169D-17-1.77635684D-15 1.89687116D-04
 ***** Axes restored to original set *****
 -------------------------------------------------------------------
 Center     Atomic                   Forces (Hartrees/Bohr)
 Number     Number              X              Y              Z
 -------------------------------------------------------------------
      1        6          -0.004585390   -0.008460980   -0.000000000
      2        6           0.004585390   -0.008460980   -0.000000000
      3        6          -0.009710808    0.000448234    0.000000000
      4        1           0.000774615    0.001351872    0.000000000
      5        6           0.009710808    0.000448234    0.000000000
      6        1          -0.000774615    0.001351872    0.000000000
      7        6           0.004317534    0.007498204    0.000000000
      8        1          -0.001511561   -0.000001099   -0.000000000
      9        6          -0.004317534    0.007498204    0.000000000
     10        1          -0.000494418   -0.000836231   -0.000000000
     11        1           0.000494418   -0.000836231   -0.000000000
     12        1           0.001511561   -0.000001099   -0.000000000
 -------------------------------------------------------------------
 Cartesian Forces:  Max     0.009710808 RMS     0.003855984
 Leave Link  716 at Tue Sep  5 13:24:47 2023, MaxMem=  1073741824 cpu:               1.6 elap:               0.1
 (Enter /opt/ohpc/Taiwania3/pkg/gaussian/g16c01/g16/l103.exe)

 GradGradGradGradGradGradGradGradGradGradGradGradGradGradGradGradGradGrad
 Berny optimization.
 FormGI is forming the generalized inverse of G from B-inverse, IUseBI=4.
 Internal  Forces:  Max     0.008249296 RMS     0.002700540
 Search for a local minimum.
 Step number   1 out of a maximum of   64
 All quantities printed in internal units (Hartrees-Bohrs-Radians)
 RMS Force = .27005D-02 SwitMx=.10000D-02 MixMth= 1
 Mixed Optimization -- RFO/linear search
 Second derivative matrix not updated -- first step.
 ITU=  0
     Eigenvalues ---    0.02096   0.02097   0.02098   0.02099   0.02100
     Eigenvalues ---    0.02100   0.02103   0.02104   0.02104   0.16000
     Eigenvalues ---    0.16000   0.16000   0.16000   0.16000   0.16000
     Eigenvalues ---    0.22000   0.22000   0.22000   0.35654   0.35654
     Eigenvalues ---    0.35754   0.35754   0.35758   0.35758   0.41560
     Eigenvalues ---    0.41573   0.45702   0.45756   0.45787   0.45819
 RFO step:  Lambda=-8.66045356D-04 EMin= 2.09600268D-02
 Linear search not attempted -- first point.
 Iteration  1 RMS(Cart)=  0.00737679 RMS(Int)=  0.00000129
 Iteration  2 RMS(Cart)=  0.00000158 RMS(Int)=  0.00000031
 Iteration  3 RMS(Cart)=  0.00000000 RMS(Int)=  0.00000031
 ITry= 1 IFail=0 DXMaxC= 1.80D-02 DCOld= 1.00D+10 DXMaxT= 3.00D-01 DXLimC= 3.00D+00 Rises=F
 ClnCor:  largest displacement from symmetrization is 6.09D-13 for atom    12.
 Variable       Old X    -DE/DX   Delta X   Delta X   Delta X     New X
                                 (Linear)    (Quad)   (Total)
    R1        2.64373  -0.00800   0.00000  -0.01747  -0.01747   2.62625
    R2        2.64490  -0.00825   0.00000  -0.01805  -0.01805   2.62686
    R3        2.04462   0.00156   0.00000   0.00435   0.00435   2.04897
    R4        2.64490  -0.00825   0.00000  -0.01805  -0.01805   2.62686
    R5        2.04462   0.00156   0.00000   0.00435   0.00435   2.04897
    R6        2.64327  -0.00778   0.00000  -0.01692  -0.01692   2.62635
    R7        2.04468   0.00151   0.00000   0.00422   0.00422   2.04890
    R8        2.64327  -0.00778   0.00000  -0.01692  -0.01692   2.62635
    R9        2.04468   0.00151   0.00000   0.00422   0.00422   2.04890
   R10        2.64373  -0.00784   0.00000  -0.01704  -0.01704   2.62669
   R11        2.04626   0.00097   0.00000   0.00272   0.00272   2.04897
   R12        2.04626   0.00097   0.00000   0.00272   0.00272   2.04897
    A1        2.09455   0.00001   0.00000  -0.00011  -0.00011   2.09444
    A2        2.09441  -0.00001   0.00000   0.00002   0.00002   2.09444
    A3        2.09422   0.00000   0.00000   0.00009   0.00009   2.09431
    A4        2.09455   0.00001   0.00000  -0.00011  -0.00011   2.09444
    A5        2.09441  -0.00001   0.00000   0.00002   0.00002   2.09444
    A6        2.09422   0.00000   0.00000   0.00009   0.00009   2.09431
    A7        2.09373   0.00012   0.00000   0.00056   0.00056   2.09429
    A8        2.09455  -0.00006   0.00000  -0.00028  -0.00028   2.09428
    A9        2.09491  -0.00006   0.00000  -0.00029  -0.00029   2.09462
   A10        2.09373   0.00012   0.00000   0.00056   0.00056   2.09429
   A11        2.09455  -0.00006   0.00000  -0.00028  -0.00028   2.09428
   A12        2.09491  -0.00006   0.00000  -0.00029  -0.00029   2.09462
   A13        2.09491  -0.00013   0.00000  -0.00045  -0.00045   2.09446
   A14        2.09433   0.00005   0.00000   0.00016   0.00016   2.09449
   A15        2.09395   0.00008   0.00000   0.00029   0.00029   2.09424
   A16        2.09491  -0.00013   0.00000  -0.00045  -0.00045   2.09446
   A17        2.09433   0.00005   0.00000   0.00016   0.00016   2.09449
   A18        2.09395   0.00008   0.00000   0.00029   0.00029   2.09424
    D1        0.00000   0.00000   0.00000   0.00000   0.00000   0.00000
    D2        3.14159   0.00000   0.00000   0.00000   0.00000   3.14159
    D3        3.14159  -0.00000   0.00000  -0.00000   0.00000   3.14159
    D4       -0.00000  -0.00000   0.00000  -0.00000   0.00000   0.00000
    D5       -0.00000  -0.00000   0.00000  -0.00000   0.00000   0.00000
    D6        3.14159  -0.00000   0.00000  -0.00000   0.00000   3.14159
    D7        3.14159   0.00000   0.00000   0.00000   0.00000   3.14159
    D8        0.00000  -0.00000   0.00000  -0.00000   0.00000   0.00000
    D9        0.00000   0.00000   0.00000   0.00000   0.00000   0.00000
   D10        3.14159   0.00000   0.00000   0.00000   0.00000   3.14159
   D11        3.14159  -0.00000   0.00000  -0.00000   0.00000   3.14159
   D12       -0.00000   0.00000   0.00000   0.00000   0.00000   0.00000
   D13        0.00000   0.00000   0.00000   0.00000   0.00000   0.00000
   D14        3.14159  -0.00000   0.00000  -0.00000   0.00000   3.14159
   D15        3.14159   0.00000   0.00000   0.00000   0.00000   3.14159
   D16       -0.00000   0.00000   0.00000   0.00000   0.00000   0.00000
   D17       -0.00000  -0.00000   0.00000  -0.00000   0.00000   0.00000
   D18        3.14159   0.00000   0.00000   0.00000   0.00000   3.14159
   D19        3.14159  -0.00000   0.00000  -0.00000   0.00000   3.14159
   D20        0.00000  -0.00000   0.00000  -0.00000   0.00000   0.00000
   D21       -0.00000   0.00000   0.00000   0.00000   0.00000   0.00000
   D22        3.14159   0.00000   0.00000   0.00000   0.00000   3.14159
   D23        3.14159  -0.00000   0.00000  -0.00000   0.00000   3.14159
   D24        0.00000   0.00000   0.00000   0.00000  -0.00000   0.00000
         Item               Value     Threshold  Converged?
 Maximum Force            0.008249     0.000015     NO 
 RMS     Force            0.002701     0.000010     NO 
 Maximum Displacement     0.018015     0.000060     NO 
 RMS     Displacement     0.007377     0.000040     NO 
 Predicted change in Energy=-4.338511D-04
 Lowest energy point so far.  Saving SCF results.
 GradGradGradGradGradGradGradGradGradGradGradGradGradGradGradGradGradGrad

 Leave Link  103 at Tue Sep  5 13:24:48 2023, MaxMem=  1073741824 cpu:              30.2 elap:               0.6
 (Enter /opt/ohpc/Taiwania3/pkg/gaussian/g16c01/g16/l202.exe)
                          Input orientation:                          
 ---------------------------------------------------------------------
 Center     Atomic      Atomic             Coordinates (Angstroms)
 Number     Number       Type             X           Y           Z
 ---------------------------------------------------------------------
      1          6           0        0.995377    0.991882    0.000000
      2          6           0       -0.394377    0.991882   -0.000000
      3          6           0        1.690467   -0.211926    0.000000
      4          1           0        1.537548    1.930862    0.000000
      5          6           0       -1.089467   -0.211926   -0.000000
      6          1           0       -0.936548    1.930862   -0.000000
      7          6           0       -0.394491   -1.415491   -0.000000
      8          1           0       -2.173699   -0.211748   -0.000000
      9          6           0        0.995491   -1.415491    0.000000
     10          1           0       -0.936485   -2.354578   -0.000000
     11          1           0        1.537485   -2.354578    0.000000
     12          1           0        2.774699   -0.211748    0.000000
 ---------------------------------------------------------------------
                    Distance matrix (angstroms):
                    1          2          3          4          5
     1  C    0.000000
     2  C    1.389753   0.000000
     3  C    1.390074   2.407431   0.000000
     4  H    1.084266   2.148026   2.148237   0.000000
     5  C    2.407431   1.390074   2.779933   3.390095   0.000000
     6  H    2.148026   1.084266   3.390095   2.474097   2.148237
     7  C    2.779780   2.407373   2.407409   3.864046   1.389806
     8  H    3.389950   2.148188   3.864165   4.285339   1.084232
     9  C    2.407373   2.779780   1.389806   3.389971   2.407409
    10  H    3.864050   3.390085   3.389961   4.948316   2.148107
    11  H    3.390085   3.864050   2.148107   4.285440   3.389961
    12  H    2.148188   3.389950   1.084232   2.474130   3.864165
                    6          7          8          9         10
     6  H    0.000000
     7  C    3.389971   0.000000
     8  H    2.474130   2.148156   0.000000
     9  C    3.864046   1.389982   3.390097   0.000000
    10  H    4.285440   1.084270   2.474352   2.148119   0.000000
    11  H    4.948316   2.148119   4.285394   1.084270   2.473970
    12  H    4.285339   3.390097   4.948397   2.148156   4.285394
                   11         12
    11  H    0.000000
    12  H    2.474352   0.000000
 Stoichiometry    C6H6
 Framework group  C2V[SGV(C6H6)]
 Deg. of freedom    11
 Full point group                 C2V     NOp   4
 RotChk:  IX=0 Diff= 2.79D-11
 Largest Abelian subgroup         C2V     NOp   4
 Largest concise Abelian subgroup C2      NOp   2
                         Standard orientation:                         
 ---------------------------------------------------------------------
 Center     Atomic      Atomic             Coordinates (Angstroms)
 Number     Number       Type             X           Y           Z
 ---------------------------------------------------------------------
      1          6           0       -0.000000    0.694877    1.203724
      2          6           0       -0.000000   -0.694877    1.203724
      3          6           0       -0.000000    1.389967   -0.000084
      4          1           0       -0.000000    1.237048    2.142703
      5          6           0       -0.000000   -1.389967   -0.000084
      6          1           0       -0.000000   -1.237048    2.142703
      7          6           0        0.000000   -0.694991   -1.203649
      8          1           0        0.000000   -2.474199    0.000093
      9          6           0        0.000000    0.694991   -1.203649
     10          1           0        0.000000   -1.236985   -2.142737
     11          1           0        0.000000    1.236985   -2.142737
     12          1           0        0.000000    2.474199    0.000093
 ---------------------------------------------------------------------
 Rotational constants (GHZ):           5.7394176           5.7392371           2.8696637
 Leave Link  202 at Tue Sep  5 13:24:48 2023, MaxMem=  1073741824 cpu:               1.9 elap:               0.1
 (Enter /opt/ohpc/Taiwania3/pkg/gaussian/g16c01/g16/l301.exe)
 Standard basis: 6-311++G(d,p) (5D, 7F)
 Ernie: Thresh=  0.10000D-02 Tol=  0.10000D-05 Strict=F.
 There are    69 symmetry adapted cartesian basis functions of A1  symmetry.
 There are    21 symmetry adapted cartesian basis functions of A2  symmetry.
 There are    21 symmetry adapted cartesian basis functions of B1  symmetry.
 There are    69 symmetry adapted cartesian basis functions of B2  symmetry.
 There are    66 symmetry adapted basis functions of A1  symmetry.
 There are    21 symmetry adapted basis functions of A2  symmetry.
 There are    21 symmetry adapted basis functions of B1  symmetry.
 There are    66 symmetry adapted basis functions of B2  symmetry.
   174 basis functions,   270 primitive gaussians,   180 cartesian basis functions
    21 alpha electrons       21 beta electrons
       nuclear repulsion energy       204.0963478645 Hartrees.
 IExCor= 4639 DFT=T Ex+Corr=wB97XD ExCW=0 ScaHFX=  1.000000
 ScaDFX=  1.000000  1.000000  1.000000  1.000000 ScalE2=  1.000000  1.000000
 IRadAn=      5 IRanWt=     -1 IRanGd=            0 ICorTp=0 IEmpDi=121
 HFx  wShort=  0.000000 wLong=  0.200000 cFull=  0.222036 cShort=  0.000000 cLong=  0.777964
 DFx  wShort=  0.000000 wLong=  0.200000 cFull=  0.000000 cShort=  0.000000 cLong=  1.000000
 NAtoms=   12 NActive=   12 NUniq=    6 SFac= 4.00D+00 NAtFMM=   60 NAOKFM=F Big=F
 Integral buffers will be    131072 words long.
 Raffenetti 2 integral format.
 Two-electron integral symmetry is turned on.
 R6Disp:  Grimme-D2 Dispersion energy=       -0.0041857946 Hartrees.
 Nuclear repulsion after empirical dispersion term =      204.0921620698 Hartrees.
 Leave Link  301 at Tue Sep  5 13:24:48 2023, MaxMem=  1073741824 cpu:               3.6 elap:               0.1
 (Enter /opt/ohpc/Taiwania3/pkg/gaussian/g16c01/g16/l302.exe)
 NPDir=0 NMtPBC=     1 NCelOv=     1 NCel=       1 NClECP=     1 NCelD=      1
         NCelK=      1 NCelE2=     1 NClLst=     1 CellRange=     0.0.
 One-electron integrals computed using PRISM.
 One-electron integral symmetry used in STVInt
 NBasis=   174 RedAO= T EigKep=  1.03D-06  NBF=    66    21    21    66
 NBsUse=   174 1.00D-06 EigRej= -1.00D+00 NBFU=    66    21    21    66
 Precomputing XC quadrature grid using
 IXCGrd= 4 IRadAn=           5 IRanWt=          -1 IRanGd=           0 AccXCQ= 0.00D+00.
 Generated NRdTot=       0 NPtTot=           0 NUsed=           0 NTot=          32
 NSgBfM=   180   180   180   180   180 MxSgAt=    12 MxSgA2=    12.
 Leave Link  302 at Tue Sep  5 13:24:49 2023, MaxMem=  1073741824 cpu:              11.2 elap:               0.2
 (Enter /opt/ohpc/Taiwania3/pkg/gaussian/g16c01/g16/l303.exe)
 DipDrv:  MaxL=1.
 Leave Link  303 at Tue Sep  5 13:24:49 2023, MaxMem=  1073741824 cpu:               4.7 elap:               0.1
 (Enter /opt/ohpc/Taiwania3/pkg/gaussian/g16c01/g16/l401.exe)
 Initial guess from the checkpoint file:  "lig.chk"
 B after Tr=     0.000000    0.000000   -0.000000
         Rot=    1.000000    0.000000   -0.000000   -0.000000 Ang=   0.00 deg.
 Guess basis will be translated and rotated to current coordinates.
 JPrj=2 DoOrth=T DoCkMO=T.
 Initial guess orbital symmetries:
       Occupied  (A1) (B2) (A1) (A1) (B2) (B2) (A1) (B2) (A1) (A1)
                 (B2) (A1) (B2) (A1) (B2) (A1) (B1) (A1) (B2) (B1)
                 (A2)
       Virtual   (A1) (B1) (B2) (A1) (A2) (A1) (B2) (B2) (B1) (A1)
                 (A2) (B1) (A1) (A1) (B2) (A1) (A1) (B2) (A2) (B1)
                 (A2) (B2) (A1) (B2) (B2) (A1) (A1) (B2) (A2) (A1)
                 (B2) (A1) (B2) (B2) (A1) (B2) (B2) (A1) (B2) (B2)
                 (A1) (A1) (B2) (A1) (A1) (B1) (B2) (A1) (B2) (B2)
                 (A1) (B2) (B1) (A2) (A1) (B1) (A2) (A2) (B2) (A1)
                 (A1) (B2) (A1) (B2) (A1) (B2) (B2) (B2) (B2) (A1)
                 (A1) (B2) (B1) (B1) (A1) (B2) (A2) (B1) (B1) (A2)
                 (A1) (B2) (A1) (B2) (A1) (A1) (A2) (A2) (B1) (B2)
                 (A1) (B2) (A1) (B1) (B1) (A2) (A1) (B2) (A1) (B1)
                 (A2) (B2) (A1) (B2) (B2) (A1) (B2) (A2) (B1) (A2)
                 (A2) (A1) (A1) (B2) (A1) (B2) (A1) (B2) (B2) (B1)
                 (A1) (B2) (A1) (A1) (B2) (B2) (B1) (A2) (A2) (B1)
                 (B2) (B2) (A1) (A2) (A1) (B2) (A1) (A1) (B2) (A1)
                 (B2) (B2) (A1) (B2) (A1) (B2) (B2) (A1) (A1) (B2)
                 (A1) (B2) (B2)
 The electronic state of the initial guess is 1-A1.
 Leave Link  401 at Tue Sep  5 13:24:49 2023, MaxMem=  1073741824 cpu:              31.4 elap:               0.7
 (Enter /opt/ohpc/Taiwania3/pkg/gaussian/g16c01/g16/l508.exe)
 Keep R1 ints in memory in symmetry-blocked form, NReq=294100597.
 FoFCou: FMM=F IPFlag=           0 FMFlag=           0 FMFlg1=           0
         NFxFlg=           0 DoJE=F BraDBF=F KetDBF=F FulRan=T
         wScrn=  0.000000 ICntrl=       600 IOpCl=  0 I1Cent=           0 NGrid=           0
         NMat0=    1 NMatS0=  15225 NMatT0=    0 NMatD0=    1 NMtDS0=    0 NMtDT0=    0
 Petite list used in FoFCou.
 Tight linear equation convergence will be used.
 RwB97XD wavefunction.
 Quadratic Convergence SCF Method.
 Line search only if initial step raises energy.
 Iteration   1 EE= -232.220895783234                                    Grad=1.634D-02 Max rot=    0.1695 deg.
 Gradient too large for Newton-Raphson -- use scaled steepest descent instead.
 Alpha Gap=     0.377 HL deriv= 9.41D-33
     ILin= 1 X=0.000D+00 Y=-2.322208957832D+02 DE= 0.00D+00 F= -2.40D-04
     ILin= 2 X=3.000D-01 Y=-2.322209559384D+02 DE=-6.02D-05 F= -1.61D-04 OKLS=F
     ILin= 3 X=6.000D-01 Y=-2.322209924874D+02 DE=-9.67D-05 F= -8.25D-05
     ILin= 4 X=1.200D+00 Y=-2.322209948061D+02 DE=-9.90D-05 F=  7.47D-05
     Accept linear search using points  3 and  4.
     An  expanding polynomial of degree  4 produced  0.9059
 Iteration   2 EE= -232.221005458178     Delta-E=       -0.000109674944 Grad=4.596D-03 Max rot=    0.0404 deg.
 QCNR:  CnvC1=8.02D-09 CnvC2=8.02D-08
 LinEq1:  Iter=  0 NonCon=     1 RMS=5.13D-05 Max=8.35D-04 NDo=     1
 AX will form     1 AO Fock derivatives at one time.
 LinEq1:  Iter=  1 NonCon=     1 RMS=2.37D-05 Max=4.71D-04 NDo=     1
 LinEq1:  Iter=  2 NonCon=     1 RMS=2.34D-06 Max=4.61D-05 NDo=     1
 LinEq1:  Iter=  3 NonCon=     1 RMS=5.49D-07 Max=2.00D-05 NDo=     1
 LinEq1:  Iter=  4 NonCon=     1 RMS=3.41D-07 Max=1.32D-05 NDo=     1
 LinEq1:  Iter=  5 NonCon=     1 RMS=1.25D-07 Max=3.55D-06 NDo=     1
 LinEq1:  Iter=  6 NonCon=     1 RMS=3.64D-08 Max=6.50D-07 NDo=     1
 LinEq1:  Iter=  7 NonCon=     1 RMS=1.47D-08 Max=3.41D-07 NDo=     1
 LinEq1:  Iter=  8 NonCon=     0 RMS=3.51D-09 Max=4.62D-08 NDo=     1
 Linear equations converged to 8.016D-09 8.016D-08 after     8 iterations.
 Angle between quadratic step and gradient=  38.86 degrees.
     ILin= 1 X=0.000D+00 Y=-2.322210054582D+02 DE= 0.00D+00 F= -2.48D-05
     ILin= 2 X=1.000D+00 Y=-2.322210178783D+02 DE=-1.24D-05 F=  4.14D-09 OKLS=T
     Accept linear search using points  1 and  2.
     An  expanding polynomial of degree  2 produced  0.9998
     Minimum is close to point  2 DX= -1.66D-04 DF= -3.41D-13 DXR=  1.67D-04 DFR=  2.75D-08 which will be used.
 Iteration   3 EE= -232.221017878331     Delta-E=       -0.000012420153 Grad=1.916D-06 Max rot=    0.0000 deg.
 QCNR:  CnvC1=1.92D-11 CnvC2=1.92D-10
 LinEq1:  Iter=  0 NonCon=     1 RMS=2.75D-08 Max=5.24D-07 NDo=     1
 LinEq1:  Iter=  1 NonCon=     1 RMS=5.39D-09 Max=1.07D-07 NDo=     1
 LinEq1:  Iter=  2 NonCon=     1 RMS=1.77D-09 Max=2.51D-08 NDo=     1
 LinEq1:  Iter=  3 NonCon=     1 RMS=4.95D-10 Max=7.08D-09 NDo=     1
 LinEq1:  Iter=  4 NonCon=     1 RMS=1.99D-10 Max=4.81D-09 NDo=     1
 LinEq1:  Iter=  5 NonCon=     1 RMS=8.46D-11 Max=2.19D-09 NDo=     1
 LinEq1:  Iter=  6 NonCon=     1 RMS=2.96D-11 Max=9.67D-10 NDo=     1
 LinEq1:  Iter=  7 NonCon=     1 RMS=1.75D-11 Max=5.91D-10 NDo=     1
 LinEq1:  Iter=  8 NonCon=     0 RMS=4.97D-12 Max=7.93D-11 NDo=     1
 Linear equations converged to 1.916D-11 1.916D-10 after     8 iterations.
 Angle between quadratic step and gradient=  34.95 degrees.
     ILin= 1 X=0.000D+00 Y=-2.322210178783D+02 DE= 0.00D+00 F= -9.03D-12
     ILin= 2 X=1.000D+00 Y=-2.322210178783D+02 DE=-3.47D-12
 Iteration   4 EE= -232.221017878335     Delta-E=       -0.000000000003 Grad=3.820D-10 Max rot=    0.0000 deg.
 Rotation gradient small -- convergence achieved.
 Orbital symmetries in SymMO:
    1=1    2=4    3=1    4=1    5=4    6=4    7=1    8=1    9=4   10=1
   11=4   12=1   13=4   14=1   15=4   16=1   17=3   18=1   19=4   20=3
   21=2   22=1   23=1   24=4   25=3   26=2   27=1   28=4   29=4   30=3
   31=1   32=2   33=3   34=1   35=1   36=1   37=4   38=4   39=1   40=2
   41=3   42=2   43=4   44=1   45=4   46=4   47=1   48=1   49=4   50=2
   51=1   52=4   53=1   54=4   55=4   56=1   57=4   58=1   59=4   60=4
   61=1   62=4   63=1   64=4   65=1   66=1   67=3   68=4   69=1   70=4
   71=4   72=1   73=4   74=3   75=2   76=1   77=3   78=2   79=2   80=1
   81=4   82=1   83=4   84=1   85=4   86=1   87=4   88=4   89=1   90=4
   91=4   92=1   93=4   94=3   95=3   96=1   97=4   98=2   99=3  100=3
  101=2  102=1  103=4  104=1  105=4  106=1  107=1  108=2  109=3  110=2
  111=4  112=1  113=4  114=1  115=3  116=3  117=2  118=1  119=4  120=1
  121=3  122=2  123=4  124=1  125=4  126=4  127=1  128=4  129=2  130=3
  131=2  132=2  133=1  134=1  135=4  136=4  137=1  138=1  139=4  140=3
  141=4  142=1  143=4  144=1  145=4  146=1  147=4  148=3  149=2  150=3
  151=2  152=4  153=4  154=1  155=2  156=1  157=4  158=1  159=4  160=1
  161=1  162=4  163=4  164=1  165=4  166=1  167=4  168=4  169=1  170=1
  171=4  172=1  173=4  174=4
 SCF Done:  E(RwB97XD) =  -232.221017878     a.u. after    4 cycles
            Convg  =    0.3820D-09                    23 Fock formations.
              S**2 =  0.0000                  -V/T =  2.0044
 Leave Link  508 at Tue Sep  5 13:24:54 2023, MaxMem=  1073741824 cpu:             202.2 elap:               4.4
 (Enter /opt/ohpc/Taiwania3/pkg/gaussian/g16c01/g16/l701.exe)
 ... and contract with generalized density number  0.
 Compute integral first derivatives.
 R6Disp: Adding Grimme-D2 dispersion energy 1st derivatives to the gradient.
 Leave Link  701 at Tue Sep  5 13:24:55 2023, MaxMem=  1073741824 cpu:              34.0 elap:               0.8
 (Enter /opt/ohpc/Taiwania3/pkg/gaussian/g16c01/g16/l702.exe)
 L702 exits ... SP integral derivatives will be done elsewhere.
 Leave Link  702 at Tue Sep  5 13:24:55 2023, MaxMem=  1073741824 cpu:               1.6 elap:               0.1
 (Enter /opt/ohpc/Taiwania3/pkg/gaussian/g16c01/g16/l703.exe)
 Integral derivatives from FoFJK, PRISM(SPDF).
 Compute integral first derivatives, UseDBF=F ICtDFT=           0.
 Calling FoFJK, ICntrl=      2127 FMM=F ISym2X=1 I1Cent= 0 IOpClX= 0 NMat=1 NMatS=1 NMatT=0.
 FoFJK:  IHMeth= 1 ICntrl=    2127 DoSepK=T KAlg= 0 I1Cent=           0 FoldK=F
 IRaf=         1 NMat=       1 IRICut=       1 DoRegI=T DoRafI=F ISym2E= 1 IDoP0=0 IntGTp=1.
 FoFCou: FMM=F IPFlag=           0 FMFlag=      100000 FMFlg1=         800
         NFxFlg=           0 DoJE=F BraDBF=F KetDBF=F FulRan=T
         wScrn=  0.000000 ICntrl=      2527 IOpCl=  0 I1Cent=           0 NGrid=           0
         NMat0=    1 NMatS0=      1 NMatT0=    0 NMatD0=    1 NMtDS0=    0 NMtDT0=    0
 Petite list used in FoFCou.
 Leave Link  703 at Tue Sep  5 13:24:56 2023, MaxMem=  1073741824 cpu:              41.5 elap:               1.0
 (Enter /opt/ohpc/Taiwania3/pkg/gaussian/g16c01/g16/l716.exe)
 Dipole        = 8.46656376D-17-2.66453526D-15 1.99702735D-05
 ***** Axes restored to original set *****
 -------------------------------------------------------------------
 Center     Atomic                   Forces (Hartrees/Bohr)
 Number     Number              X              Y              Z
 -------------------------------------------------------------------
      1        6           0.000524194    0.000629977   -0.000000000
      2        6          -0.000524194    0.000629977   -0.000000000
      3        6           0.000718425    0.000132615    0.000000000
      4        1           0.000059665    0.000098232    0.000000000
      5        6          -0.000718425    0.000132615    0.000000000
      6        1          -0.000059665    0.000098232    0.000000000
      7        6          -0.000356886   -0.000755299    0.000000000
      8        1          -0.000130265   -0.000014380   -0.000000000
      9        6           0.000356886   -0.000755299   -0.000000000
     10        1          -0.000067052   -0.000091145   -0.000000000
     11        1           0.000067052   -0.000091145   -0.000000000
     12        1           0.000130265   -0.000014380   -0.000000000
 -------------------------------------------------------------------
 Cartesian Forces:  Max     0.000755299 RMS     0.000328837
 Leave Link  716 at Tue Sep  5 13:24:56 2023, MaxMem=  1073741824 cpu:               1.8 elap:               0.1
 (Enter /opt/ohpc/Taiwania3/pkg/gaussian/g16c01/g16/l103.exe)

 GradGradGradGradGradGradGradGradGradGradGradGradGradGradGradGradGradGrad
 Berny optimization.
 Using GEDIIS/GDIIS optimizer.
 FormGI is forming the generalized inverse of G from B-inverse, IUseBI=4.
 Internal  Forces:  Max     0.000980224 RMS     0.000305359
 Search for a local minimum.
 Step number   2 out of a maximum of   64
 All quantities printed in internal units (Hartrees-Bohrs-Radians)
 RMS Force = .30536D-03 SwitMx=.10000D-02 MixMth= 2
 Mixed Optimization -- En-DIIS/RFO-DIIS
 Update second derivatives using D2CorX and points    1    2
 DE= -3.91D-04 DEPred=-4.34D-04 R= 9.01D-01
 TightC=F SS=  1.41D+00  RLast= 4.37D-02 DXNew= 5.0454D-01 1.3108D-01
 Trust test= 9.01D-01 RLast= 4.37D-02 DXMaxT set to 3.00D-01
 ITU=  1  0
 Use linear search instead of GDIIS.
     Eigenvalues ---    0.02096   0.02097   0.02098   0.02099   0.02100
     Eigenvalues ---    0.02100   0.02103   0.02104   0.02104   0.16000
     Eigenvalues ---    0.16000   0.16000   0.16000   0.16000   0.16000
     Eigenvalues ---    0.21995   0.22000   0.22000   0.35390   0.35654
     Eigenvalues ---    0.35682   0.35754   0.35756   0.35758   0.41512
     Eigenvalues ---    0.41526   0.45705   0.45756   0.45801   0.51246
 RFO step:  Lambda=-1.12473387D-06 EMin= 2.09600241D-02
 Quartic linear search produced a step of -0.09374.
 Iteration  1 RMS(Cart)=  0.00089637 RMS(Int)=  0.00000004
 Iteration  2 RMS(Cart)=  0.00000004 RMS(Int)=  0.00000003
 ITry= 1 IFail=0 DXMaxC= 1.93D-03 DCOld= 1.00D+10 DXMaxT= 3.00D-01 DXLimC= 3.00D+00 Rises=F
 ClnCor:  largest displacement from symmetrization is 1.73D-13 for atom     9.
 Variable       Old X    -DE/DX   Delta X   Delta X   Delta X     New X
                                 (Linear)    (Quad)   (Total)
    R1        2.62625   0.00098   0.00164   0.00024   0.00188   2.62813
    R2        2.62686   0.00083   0.00169  -0.00011   0.00158   2.62844
    R3        2.04897   0.00011  -0.00041   0.00072   0.00031   2.04928
    R4        2.62686   0.00083   0.00169  -0.00011   0.00158   2.62844
    R5        2.04897   0.00011  -0.00041   0.00072   0.00031   2.04928
    R6        2.62635   0.00096   0.00159   0.00025   0.00184   2.62819
    R7        2.04890   0.00013  -0.00040   0.00074   0.00035   2.04925
    R8        2.62635   0.00096   0.00159   0.00025   0.00184   2.62819
    R9        2.04890   0.00013  -0.00040   0.00074   0.00035   2.04925
   R10        2.62669   0.00088   0.00160   0.00008   0.00168   2.62836
   R11        2.04897   0.00011  -0.00025   0.00055   0.00030   2.04927
   R12        2.04897   0.00011  -0.00025   0.00055   0.00030   2.04927
    A1        2.09444  -0.00001   0.00001  -0.00008  -0.00007   2.09437
    A2        2.09444   0.00001  -0.00000   0.00005   0.00005   2.09448
    A3        2.09431   0.00000  -0.00001   0.00003   0.00002   2.09433
    A4        2.09444  -0.00001   0.00001  -0.00008  -0.00007   2.09437
    A5        2.09444   0.00001  -0.00000   0.00005   0.00005   2.09448
    A6        2.09431   0.00000  -0.00001   0.00003   0.00002   2.09433
    A7        2.09429   0.00003  -0.00005   0.00020   0.00014   2.09443
    A8        2.09428  -0.00000   0.00003  -0.00001   0.00001   2.09429
    A9        2.09462  -0.00003   0.00003  -0.00018  -0.00016   2.09446
   A10        2.09429   0.00003  -0.00005   0.00020   0.00014   2.09443
   A11        2.09428  -0.00000   0.00003  -0.00001   0.00001   2.09429
   A12        2.09462  -0.00003   0.00003  -0.00018  -0.00016   2.09446
   A13        2.09446  -0.00002   0.00004  -0.00012  -0.00008   2.09438
   A14        2.09449  -0.00000  -0.00001  -0.00002  -0.00003   2.09445
   A15        2.09424   0.00002  -0.00003   0.00014   0.00011   2.09436
   A16        2.09446  -0.00002   0.00004  -0.00012  -0.00008   2.09438
   A17        2.09449  -0.00000  -0.00001  -0.00002  -0.00003   2.09445
   A18        2.09424   0.00002  -0.00003   0.00014   0.00011   2.09436
    D1        0.00000   0.00000   0.00000   0.00000  -0.00000   0.00000
    D2        3.14159   0.00000   0.00000   0.00000   0.00000   3.14159
    D3        3.14159  -0.00000   0.00000  -0.00000   0.00000   3.14159
    D4       -0.00000  -0.00000   0.00000  -0.00000   0.00000   0.00000
    D5       -0.00000  -0.00000   0.00000  -0.00000   0.00000   0.00000
    D6        3.14159  -0.00000   0.00000  -0.00000   0.00000   3.14159
    D7        3.14159   0.00000   0.00000   0.00000   0.00000   3.14159
    D8        0.00000  -0.00000   0.00000  -0.00000   0.00000   0.00000
    D9        0.00000   0.00000   0.00000   0.00000   0.00000   0.00000
   D10        3.14159   0.00000   0.00000   0.00000   0.00000   3.14159
   D11        3.14159  -0.00000   0.00000  -0.00000   0.00000   3.14159
   D12       -0.00000   0.00000   0.00000   0.00000   0.00000   0.00000
   D13        0.00000   0.00000   0.00000   0.00000   0.00000   0.00000
   D14        3.14159  -0.00000   0.00000  -0.00000   0.00000   3.14159
   D15        3.14159   0.00000   0.00000   0.00000   0.00000   3.14159
   D16       -0.00000   0.00000   0.00000   0.00000   0.00000   0.00000
   D17       -0.00000  -0.00000   0.00000  -0.00000   0.00000   0.00000
   D18        3.14159   0.00000   0.00000   0.00000   0.00000   3.14159
   D19        3.14159  -0.00000   0.00000  -0.00000   0.00000   3.14159
   D20        0.00000  -0.00000   0.00000  -0.00000   0.00000   0.00000
   D21        0.00000   0.00000   0.00000   0.00000  -0.00000   0.00000
   D22        3.14159   0.00000   0.00000   0.00000   0.00000   3.14159
   D23        3.14159  -0.00000   0.00000  -0.00000   0.00000   3.14159
   D24       -0.00000   0.00000   0.00000   0.00000   0.00000   0.00000
         Item               Value     Threshold  Converged?
 Maximum Force            0.000980     0.000015     NO 
 RMS     Force            0.000305     0.000010     NO 
 Maximum Displacement     0.001926     0.000060     NO 
 RMS     Displacement     0.000896     0.000040     NO 
 Predicted change in Energy=-4.937482D-06
 Lowest energy point so far.  Saving SCF results.
 GradGradGradGradGradGradGradGradGradGradGradGradGradGradGradGradGradGrad

 Leave Link  103 at Tue Sep  5 13:24:56 2023, MaxMem=  1073741824 cpu:              19.9 elap:               0.4
 (Enter /opt/ohpc/Taiwania3/pkg/gaussian/g16c01/g16/l202.exe)
                          Input orientation:                          
 ---------------------------------------------------------------------
 Center     Atomic      Atomic             Coordinates (Angstroms)
 Number     Number       Type             X           Y           Z
 ---------------------------------------------------------------------
      1          6           0        0.995873    0.992701    0.000000
      2          6           0       -0.394873    0.992701   -0.000000
      3          6           0        1.691302   -0.211876    0.000000
      4          1           0        1.538171    1.931796    0.000000
      5          6           0       -1.090302   -0.211876   -0.000000
      6          1           0       -0.937171    1.931796   -0.000000
      7          6           0       -0.394935   -1.416338   -0.000000
      8          1           0       -2.174718   -0.211782   -0.000000
      9          6           0        0.995935   -1.416338    0.000000
     10          1           0       -0.937113   -2.355500   -0.000000
     11          1           0        1.538113   -2.355500    0.000000
     12          1           0        2.775718   -0.211782    0.000000
 ---------------------------------------------------------------------
                    Distance matrix (angstroms):
                    1          2          3          4          5
     1  C    0.000000
     2  C    1.390745   0.000000
     3  C    1.390909   2.408969   0.000000
     4  H    1.084430   2.149083   2.149135   0.000000
     5  C    2.408969   1.390909   2.781604   3.391784   0.000000
     6  H    2.149083   1.084430   3.391784   2.475341   2.149135
     7  C    2.781692   2.409038   2.408965   3.866122   1.390778
     8  H    3.391670   2.149099   3.866020   4.287245   1.084416
     9  C    2.409038   2.781692   1.390778   3.391758   2.408965
    10  H    3.866120   3.391825   3.391708   4.950550   2.149091
    11  H    3.391825   3.866120   2.149091   4.287297   3.391708
    12  H    2.149099   3.391670   1.084416   2.475167   3.866020
                    6          7          8          9         10
     6  H    0.000000
     7  C    3.391758   0.000000
     8  H    2.475167   2.149089   0.000000
     9  C    3.866122   1.390869   3.391753   0.000000
    10  H    4.287297   1.084428   2.475317   2.149115   0.000000
    11  H    4.950550   2.149115   4.287264   1.084428   2.475225
    12  H    4.287245   3.391753   4.950436   2.149089   4.287264
                   11         12
    11  H    0.000000
    12  H    2.475317   0.000000
 Stoichiometry    C6H6
 Framework group  C2V[SGV(C6H6)]
 Deg. of freedom    11
 Full point group                 C2V     NOp   4
 RotChk:  IX=0 Diff= 2.79D-11
 Largest Abelian subgroup         C2V     NOp   4
 Largest concise Abelian subgroup C2      NOp   2
                         Standard orientation:                         
 ---------------------------------------------------------------------
 Center     Atomic      Atomic             Coordinates (Angstroms)
 Number     Number       Type             X           Y           Z
 ---------------------------------------------------------------------
      1          6           0        0.000000    0.695373    1.204537
      2          6           0       -0.000000   -0.695373    1.204537
      3          6           0        0.000000    1.390802   -0.000040
      4          1           0        0.000000    1.237671    2.143633
      5          6           0       -0.000000   -1.390802   -0.000040
      6          1           0       -0.000000   -1.237671    2.143633
      7          6           0       -0.000000   -0.695435   -1.204501
      8          1           0       -0.000000   -2.475218    0.000054
      9          6           0        0.000000    0.695435   -1.204501
     10          1           0       -0.000000   -1.237613   -2.143664
     11          1           0        0.000000    1.237613   -2.143664
     12          1           0        0.000000    2.475218    0.000054
 ---------------------------------------------------------------------
 Rotational constants (GHZ):           5.7324999           5.7321082           2.8661520
 Leave Link  202 at Tue Sep  5 13:24:56 2023, MaxMem=  1073741824 cpu:               1.9 elap:               0.1
 (Enter /opt/ohpc/Taiwania3/pkg/gaussian/g16c01/g16/l301.exe)
 Standard basis: 6-311++G(d,p) (5D, 7F)
 Ernie: Thresh=  0.10000D-02 Tol=  0.10000D-05 Strict=F.
 There are    69 symmetry adapted cartesian basis functions of A1  symmetry.
 There are    21 symmetry adapted cartesian basis functions of A2  symmetry.
 There are    21 symmetry adapted cartesian basis functions of B1  symmetry.
 There are    69 symmetry adapted cartesian basis functions of B2  symmetry.
 There are    66 symmetry adapted basis functions of A1  symmetry.
 There are    21 symmetry adapted basis functions of A2  symmetry.
 There are    21 symmetry adapted basis functions of B1  symmetry.
 There are    66 symmetry adapted basis functions of B2  symmetry.
   174 basis functions,   270 primitive gaussians,   180 cartesian basis functions
    21 alpha electrons       21 beta electrons
       nuclear repulsion energy       203.9774480476 Hartrees.
 IExCor= 4639 DFT=T Ex+Corr=wB97XD ExCW=0 ScaHFX=  1.000000
 ScaDFX=  1.000000  1.000000  1.000000  1.000000 ScalE2=  1.000000  1.000000
 IRadAn=      5 IRanWt=     -1 IRanGd=            0 ICorTp=0 IEmpDi=121
 HFx  wShort=  0.000000 wLong=  0.200000 cFull=  0.222036 cShort=  0.000000 cLong=  0.777964
 DFx  wShort=  0.000000 wLong=  0.200000 cFull=  0.000000 cShort=  0.000000 cLong=  1.000000
 NAtoms=   12 NActive=   12 NUniq=    6 SFac= 4.00D+00 NAtFMM=   60 NAOKFM=F Big=F
 Integral buffers will be    131072 words long.
 Raffenetti 2 integral format.
 Two-electron integral symmetry is turned on.
 R6Disp:  Grimme-D2 Dispersion energy=       -0.0041851837 Hartrees.
 Nuclear repulsion after empirical dispersion term =      203.9732628640 Hartrees.
 Leave Link  301 at Tue Sep  5 13:24:56 2023, MaxMem=  1073741824 cpu:               3.6 elap:               0.1
 (Enter /opt/ohpc/Taiwania3/pkg/gaussian/g16c01/g16/l302.exe)
 NPDir=0 NMtPBC=     1 NCelOv=     1 NCel=       1 NClECP=     1 NCelD=      1
         NCelK=      1 NCelE2=     1 NClLst=     1 CellRange=     0.0.
 One-electron integrals computed using PRISM.
 One-electron integral symmetry used in STVInt
 NBasis=   174 RedAO= T EigKep=  1.04D-06  NBF=    66    21    21    66
 NBsUse=   174 1.00D-06 EigRej= -1.00D+00 NBFU=    66    21    21    66
 Precomputing XC quadrature grid using
 IXCGrd= 4 IRadAn=           5 IRanWt=          -1 IRanGd=           0 AccXCQ= 0.00D+00.
 Generated NRdTot=       0 NPtTot=           0 NUsed=           0 NTot=          32
 NSgBfM=   180   180   180   180   180 MxSgAt=    12 MxSgA2=    12.
 Leave Link  302 at Tue Sep  5 13:24:57 2023, MaxMem=  1073741824 cpu:              10.2 elap:               0.2
 (Enter /opt/ohpc/Taiwania3/pkg/gaussian/g16c01/g16/l303.exe)
 DipDrv:  MaxL=1.
 Leave Link  303 at Tue Sep  5 13:24:57 2023, MaxMem=  1073741824 cpu:               3.3 elap:               0.1
 (Enter /opt/ohpc/Taiwania3/pkg/gaussian/g16c01/g16/l401.exe)
 Initial guess from the checkpoint file:  "lig.chk"
 B after Tr=    -0.000000    0.000000    0.000000
         Rot=    1.000000    0.000000   -0.000000    0.000000 Ang=   0.00 deg.
 Guess basis will be translated and rotated to current coordinates.
 JPrj=2 DoOrth=T DoCkMO=T.
 Initial guess orbital symmetries:
       Occupied  (A1) (B2) (A1) (A1) (B2) (B2) (A1) (A1) (B2) (A1)
                 (B2) (A1) (B2) (A1) (B2) (A1) (B1) (A1) (B2) (B1)
                 (A2)
       Virtual   (A1) (A1) (B2) (B1) (A2) (A1) (B2) (B2) (B1) (A1)
                 (A2) (B1) (A1) (A1) (A1) (B2) (B2) (A1) (A2) (B1)
                 (A2) (B2) (A1) (B2) (B2) (A1) (A1) (B2) (A2) (A1)
                 (B2) (A1) (B2) (B2) (A1) (B2) (A1) (B2) (B2) (A1)
                 (B2) (A1) (B2) (A1) (A1) (B1) (B2) (A1) (B2) (B2)
                 (A1) (B2) (B1) (A2) (A1) (B1) (A2) (A2) (A1) (B2)
                 (A1) (B2) (A1) (B2) (A1) (B2) (B2) (A1) (B2) (B2)
                 (A1) (B2) (B1) (B1) (A1) (B2) (A2) (B1) (B1) (A2)
                 (A1) (B2) (A1) (B2) (A1) (A1) (A2) (B1) (A2) (B2)
                 (A1) (B2) (A1) (B1) (B1) (A2) (A1) (B2) (A1) (B1)
                 (A2) (B2) (A1) (B2) (B2) (A1) (B2) (A2) (B1) (A2)
                 (A2) (A1) (A1) (B2) (B2) (A1) (A1) (B2) (B1) (B2)
                 (A1) (B2) (A1) (B2) (A1) (B2) (B1) (A2) (B1) (A2)
                 (B2) (B2) (A1) (A2) (A1) (B2) (A1) (B2) (A1) (A1)
                 (B2) (B2) (A1) (B2) (A1) (B2) (B2) (A1) (A1) (B2)
                 (A1) (B2) (B2)
 The electronic state of the initial guess is 1-A1.
 Leave Link  401 at Tue Sep  5 13:24:57 2023, MaxMem=  1073741824 cpu:              24.5 elap:               0.5
 (Enter /opt/ohpc/Taiwania3/pkg/gaussian/g16c01/g16/l508.exe)
 Keep R1 ints in memory in symmetry-blocked form, NReq=294100597.
 FoFCou: FMM=F IPFlag=           0 FMFlag=           0 FMFlg1=           0
         NFxFlg=           0 DoJE=F BraDBF=F KetDBF=F FulRan=T
         wScrn=  0.000000 ICntrl=       600 IOpCl=  0 I1Cent=           0 NGrid=           0
         NMat0=    1 NMatS0=  15225 NMatT0=    0 NMatD0=    1 NMtDS0=    0 NMtDT0=    0
 Petite list used in FoFCou.
 Tight linear equation convergence will be used.
 RwB97XD wavefunction.
 Quadratic Convergence SCF Method.
 Line search only if initial step raises energy.
 Iteration   1 EE= -232.221021557624                                    Grad=1.640D-03 Max rot=    0.0172 deg.
 QCNR:  CnvC1=8.02D-09 CnvC2=8.02D-08
 LinEq1:  Iter=  0 NonCon=     1 RMS=1.22D-05 Max=2.00D-04 NDo=     1
 AX will form     1 AO Fock derivatives at one time.
 LinEq1:  Iter=  1 NonCon=     1 RMS=5.64D-06 Max=9.25D-05 NDo=     1
 LinEq1:  Iter=  2 NonCon=     1 RMS=1.09D-06 Max=1.98D-05 NDo=     1
 LinEq1:  Iter=  3 NonCon=     1 RMS=3.12D-07 Max=9.60D-06 NDo=     1
 LinEq1:  Iter=  4 NonCon=     1 RMS=1.06D-07 Max=3.90D-06 NDo=     1
 LinEq1:  Iter=  5 NonCon=     1 RMS=6.62D-08 Max=2.23D-06 NDo=     1
[...]
    R8        2.62830   0.00000   0.00000   0.00000   0.00000   2.62830
    R9        2.04923   0.00000   0.00000   0.00000   0.00000   2.04923
   R10        2.62826  -0.00000   0.00000  -0.00000  -0.00000   2.62826
   R11        2.04924   0.00000   0.00000   0.00000   0.00000   2.04924
   R12        2.04924   0.00000   0.00000   0.00000   0.00000   2.04924
    A1        2.09435   0.00000   0.00000   0.00000   0.00000   2.09435
    A2        2.09448  -0.00000   0.00000  -0.00001  -0.00001   2.09447
    A3        2.09436   0.00000   0.00000   0.00001   0.00001   2.09436
    A4        2.09435   0.00000   0.00000   0.00000   0.00000   2.09435
    A5        2.09448  -0.00000   0.00000  -0.00001  -0.00001   2.09447
    A6        2.09436   0.00000   0.00000   0.00001   0.00001   2.09436
    A7        2.09449  -0.00000   0.00000  -0.00001  -0.00001   2.09448
    A8        2.09435   0.00000   0.00000   0.00000   0.00000   2.09435
    A9        2.09435   0.00000   0.00000   0.00000   0.00000   2.09435
   A10        2.09449  -0.00000   0.00000  -0.00001  -0.00001   2.09448
   A11        2.09435   0.00000   0.00000   0.00000   0.00000   2.09435
   A12        2.09435   0.00000   0.00000   0.00000   0.00000   2.09435
   A13        2.09435   0.00000   0.00000   0.00000   0.00000   2.09435
   A14        2.09437  -0.00000   0.00000  -0.00000  -0.00000   2.09436
   A15        2.09447  -0.00000   0.00000   0.00000   0.00000   2.09447
   A16        2.09435   0.00000   0.00000   0.00000   0.00000   2.09435
   A17        2.09437  -0.00000   0.00000  -0.00000  -0.00000   2.09436
   A18        2.09447  -0.00000   0.00000   0.00000   0.00000   2.09447
    D1       -0.00000  -0.00000   0.00000  -0.00000   0.00000   0.00000
    D2        3.14159  -0.00000   0.00000  -0.00000   0.00000   3.14159
    D3        3.14159   0.00000   0.00000   0.00000   0.00000   3.14159
    D4        0.00000   0.00000   0.00000  -0.00000   0.00000   0.00000
    D5        0.00000   0.00000   0.00000   0.00000   0.00000   0.00000
    D6        3.14159   0.00000   0.00000   0.00000   0.00000   3.14159
    D7        3.14159  -0.00000   0.00000   0.00000   0.00000   3.14159
    D8       -0.00000   0.00000   0.00000   0.00000   0.00000   0.00000
    D9       -0.00000  -0.00000   0.00000  -0.00000   0.00000   0.00000
   D10        3.14159  -0.00000   0.00000  -0.00000   0.00000   3.14159
   D11        3.14159   0.00000   0.00000  -0.00000   0.00000   3.14159
   D12        0.00000  -0.00000   0.00000  -0.00000   0.00000   0.00000
   D13       -0.00000  -0.00000   0.00000  -0.00000   0.00000   0.00000
   D14        3.14159   0.00000   0.00000   0.00000   0.00000   3.14159
   D15        3.14159  -0.00000   0.00000  -0.00000   0.00000   3.14159
   D16        0.00000  -0.00000   0.00000  -0.00000   0.00000   0.00000
   D17        0.00000   0.00000   0.00000   0.00000   0.00000   0.00000
   D18        3.14159  -0.00000   0.00000  -0.00000   0.00000   3.14159
   D19        3.14159   0.00000   0.00000   0.00000   0.00000   3.14159
   D20       -0.00000   0.00000   0.00000   0.00000   0.00000   0.00000
   D21       -0.00000  -0.00000   0.00000  -0.00000   0.00000   0.00000
   D22        3.14159  -0.00000   0.00000  -0.00000   0.00000   3.14159
   D23        3.14159   0.00000   0.00000   0.00000   0.00000   3.14159
   D24       -0.00000   0.00000   0.00000   0.00000   0.00000   0.00000
         Item               Value     Threshold  Converged?
 Maximum Force            0.000001     0.000015     YES
 RMS     Force            0.000000     0.000010     YES
 Maximum Displacement     0.000013     0.000060     YES
 RMS     Displacement     0.000003     0.000040     YES
 Predicted change in Energy=-3.336388D-11
 Optimization completed.
    -- Stationary point found.
                           ----------------------------
                           !   Optimized Parameters   !
                           ! (Angstroms and Degrees)  !
 --------------------------                            --------------------------
 ! Name  Definition              Value          Derivative Info.                !
 --------------------------------------------------------------------------------
 ! R1    R(1,2)                  1.3908         -DE/DX =    0.0                 !
 ! R2    R(1,3)                  1.3908         -DE/DX =    0.0                 !
 ! R3    R(1,4)                  1.0844         -DE/DX =    0.0                 !
 ! R4    R(2,5)                  1.3908         -DE/DX =    0.0                 !
 ! R5    R(2,6)                  1.0844         -DE/DX =    0.0                 !
 ! R6    R(3,9)                  1.3908         -DE/DX =    0.0                 !
 ! R7    R(3,12)                 1.0844         -DE/DX =    0.0                 !
 ! R8    R(5,7)                  1.3908         -DE/DX =    0.0                 !
 ! R9    R(5,8)                  1.0844         -DE/DX =    0.0                 !
 ! R10   R(7,9)                  1.3908         -DE/DX =    0.0                 !
 ! R11   R(7,10)                 1.0844         -DE/DX =    0.0                 !
 ! R12   R(9,11)                 1.0844         -DE/DX =    0.0                 !
 ! A1    A(2,1,3)              119.9973         -DE/DX =    0.0                 !
 ! A2    A(2,1,4)              120.0048         -DE/DX =    0.0                 !
 ! A3    A(3,1,4)              119.998          -DE/DX =    0.0                 !
 ! A4    A(1,2,5)              119.9973         -DE/DX =    0.0                 !
 ! A5    A(1,2,6)              120.0048         -DE/DX =    0.0                 !
 ! A6    A(5,2,6)              119.998          -DE/DX =    0.0                 !
 ! A7    A(1,3,9)              120.0054         -DE/DX =    0.0                 !
 ! A8    A(1,3,12)             119.9972         -DE/DX =    0.0                 !
 ! A9    A(9,3,12)             119.9974         -DE/DX =    0.0                 !
 ! A10   A(2,5,7)              120.0054         -DE/DX =    0.0                 !
 ! A11   A(2,5,8)              119.9972         -DE/DX =    0.0                 !
 ! A12   A(7,5,8)              119.9974         -DE/DX =    0.0                 !
 ! A13   A(5,7,9)              119.9973         -DE/DX =    0.0                 !
 ! A14   A(5,7,10)             119.9985         -DE/DX =    0.0                 !
 ! A15   A(9,7,10)             120.0042         -DE/DX =    0.0                 !
 ! A16   A(3,9,7)              119.9973         -DE/DX =    0.0                 !
 ! A17   A(3,9,11)             119.9985         -DE/DX =    0.0                 !
 ! A18   A(7,9,11)             120.0042         -DE/DX =    0.0                 !
 ! D1    D(3,1,2,5)              0.0            -DE/DX =    0.0                 !
 ! D2    D(3,1,2,6)            180.0            -DE/DX =    0.0                 !
 ! D3    D(4,1,2,5)            180.0            -DE/DX =    0.0                 !
 ! D4    D(4,1,2,6)              0.0            -DE/DX =    0.0                 !
 ! D5    D(2,1,3,9)              0.0            -DE/DX =    0.0                 !
 ! D6    D(2,1,3,12)           180.0            -DE/DX =    0.0                 !
 ! D7    D(4,1,3,9)            180.0            -DE/DX =    0.0                 !
 ! D8    D(4,1,3,12)             0.0            -DE/DX =    0.0                 !
 ! D9    D(1,2,5,7)              0.0            -DE/DX =    0.0                 !
 ! D10   D(1,2,5,8)            180.0            -DE/DX =    0.0                 !
 ! D11   D(6,2,5,7)            180.0            -DE/DX =    0.0                 !
 ! D12   D(6,2,5,8)              0.0            -DE/DX =    0.0                 !
 ! D13   D(1,3,9,7)              0.0            -DE/DX =    0.0                 !
 ! D14   D(1,3,9,11)           180.0            -DE/DX =    0.0                 !
 ! D15   D(12,3,9,7)           180.0            -DE/DX =    0.0                 !
 ! D16   D(12,3,9,11)            0.0            -DE/DX =    0.0                 !
 ! D17   D(2,5,7,9)              0.0            -DE/DX =    0.0                 !
 ! D18   D(2,5,7,10)           180.0            -DE/DX =    0.0                 !
 ! D19   D(8,5,7,9)            180.0            -DE/DX =    0.0                 !
 ! D20   D(8,5,7,10)             0.0            -DE/DX =    0.0                 !
 ! D21   D(5,7,9,3)              0.0            -DE/DX =    0.0                 !
 ! D22   D(5,7,9,11)           180.0            -DE/DX =    0.0                 !
 ! D23   D(10,7,9,3)           180.0            -DE/DX =    0.0                 !
 ! D24   D(10,7,9,11)            0.0            -DE/DX =    0.0                 !
 --------------------------------------------------------------------------------
 GradGradGradGradGradGradGradGradGradGradGradGradGradGradGradGradGradGrad

 Leave Link  103 at Tue Sep  5 13:25:31 2023, MaxMem=  1073741824 cpu:              12.7 elap:               0.3
 (Enter /opt/ohpc/Taiwania3/pkg/gaussian/g16c01/g16/l9999.exe)

 ----------------------------------------------------------------------

 Electric dipole moment (input orientation):
 (Debye = 10**-18 statcoulomb cm , SI units = C m)
                  (au)            (Debye)         (10**-30 SI)
   Tot        0.000000D+00      0.000000D+00      0.000000D+00
   x          0.000000D+00      0.000000D+00      0.000000D+00
   y          0.000000D+00      0.000000D+00      0.000000D+00
   z          0.000000D+00      0.000000D+00      0.000000D+00

 Dipole polarizability, Alpha (input orientation).
 (esu units = cm**3 , SI units = C**2 m**2 J**-1)
 Alpha(0;0):
               (au)            (10**-24 esu)      (10**-40 SI)
   iso        0.650948D+02      0.964606D+01      0.107327D+02
   aniso      0.362053D+02      0.536507D+01      0.596945D+01
   xx         0.771482D+02      0.114322D+02      0.127200D+02
   yx         0.000000D+00      0.000000D+00      0.000000D+00
   yy         0.771783D+02      0.114366D+02      0.127250D+02
   zx         0.000000D+00      0.000000D+00      0.000000D+00
   zy         0.000000D+00      0.000000D+00      0.000000D+00
   zz         0.409580D+02      0.606934D+01      0.675306D+01

 ----------------------------------------------------------------------

 Dipole orientation:
     6          1.88198991          0.00000001         -1.87593092
     6         -0.74626449         -0.00000000         -1.87593094
     6          3.19603323          0.00000001          0.40030716
     1          2.90675492          0.00000001         -3.65053601
     6         -2.06030783         -0.00000001          0.40030714
     1         -1.77102949         -0.00000001         -3.65053603
     6         -0.74626750         -0.00000000          2.67654181
     1         -4.10954010         -0.00000002          0.40030363
     6          1.88199288          0.00000001          2.67654183
     1         -1.77101672         -0.00000001          4.45115624
     1          2.90674208          0.00000001          4.45115626
     1          5.24526550          0.00000002          0.40030367

 Electric dipole moment (dipole orientation):
 (Debye = 10**-18 statcoulomb cm , SI units = C m)
                  (au)            (Debye)         (10**-30 SI)
   Tot        0.000000D+00      0.000000D+00      0.000000D+00
   x          0.000000D+00      0.000000D+00      0.000000D+00
   y          0.000000D+00      0.000000D+00      0.000000D+00
   z          0.000000D+00      0.000000D+00      0.000000D+00

 Dipole polarizability, Alpha (dipole orientation).
 (esu units = cm**3 , SI units = C**2 m**2 J**-1)
 Alpha(0;0):
               (au)            (10**-24 esu)      (10**-40 SI)
   iso        0.650948D+02      0.964606D+01      0.107327D+02
   aniso      0.362053D+02      0.536507D+01      0.596945D+01
   xx         0.771482D+02      0.114322D+02      0.127200D+02
   yx         0.000000D+00      0.000000D+00      0.000000D+00
   yy         0.409580D+02      0.606934D+01      0.675306D+01
   zx         0.000000D+00      0.000000D+00      0.000000D+00
   zy         0.000000D+00      0.000000D+00      0.000000D+00
   zz         0.771783D+02      0.114366D+02      0.127250D+02

 ----------------------------------------------------------------------
 Unable to Open any file for archive entry.
 1\1\GINC-CPN3056\Freq\RwB97XD\6-311++G(d,p)\C6H6\AN900821\05-Sep-2023\
 0\\#P Geom=AllCheck Guess=TCheck SCRF=Check GenChk RwB97XD/6-311++G(d,
 p) Freq\\ligand\\0,1\C,0.9959061661,0.9926998991,0.\C,-0.3949061661,0.
 9926998991,0.\C,1.6912679508,-0.2118334203,0.\H,1.5381884537,1.9317804
 698,0.\C,-1.0902679508,-0.2118334203,0.\H,-0.9371884537,1.9317804698,0
 .\C,-0.3949077473,-1.4163649339,0.\H,-2.1746749697,-0.2118315675,0.\C,
 0.9959077473,-1.4163649339,0.\H,-0.9371816764,-2.3554504473,0.\H,1.538
 1816764,-2.3554504473,0.\H,2.7756749697,-0.2118315675,0.\\Version=ES64
 L-G16RevC.01\State=1-A1\HF=-232.2210227\RMSD=1.170e-10\RMSF=9.192e-07\
 ZeroPoint=0.1011001\Thermal=0.1054611\ETot=-232.1155616\HTot=-232.1146
 175\GTot=-232.1467114\Dipole=0.,-0.0000008,0.\DipoleDeriv=-0.0200353,0
 .0642273,0.,0.0636077,0.0536972,0.,0.,0.,-0.1436065,-0.0200353,-0.0642
 273,0.,-0.0636077,0.0536972,0.,0.,0.,-0.1436065,0.0903341,0.,0.,0.,-0.
 0571524,0.,0.,0.,-0.1436583,0.0273842,-0.0760657,0.,-0.0761891,-0.0608
 88,0.,0.,0.,0.1435836,0.0903341,-0.0000001,0.,0.,-0.0571525,0.,0.,0.,-
 0.1436583,0.0273842,0.0760657,0.,0.0761892,-0.060888,0.,0.,0.,0.143583
 6,-0.0200362,0.0642269,0.,0.063608,0.0536975,0.,0.,0.,-0.1436067,-0.10
 50323,0.0000002,0.,0.0000007,0.0715352,0.,0.,0.,0.1437043,-0.0200362,-
 0.0642269,0.,-0.0636079,0.0536974,0.,0.,0.,-0.1436067,0.0273854,-0.076
 0636,0.,-0.0761897,-0.0608894,0.,0.,0.,0.1435836,0.0273854,0.0760636,0
 .,0.0761897,-0.0608894,0.,0.,0.,0.1435836,-0.1050323,-0.0000001,0.,-0.
 0000007,0.0715352,0.,0.,0.,0.1437043\Polar=77.1482435,0.,77.1782777,0.
 ,0.,40.9579604\Quadrupole=2.1280715,2.128485,-4.2565565,0.,0.,0.\PG=C0
 2V [SGV(C6H6)]\NImag=0\\0.69513291,0.03346042,0.73403152,0.,0.,0.13964
 345,-0.34434233,-0.03627853,0.,0.69513291,0.03627853,-0.13356066,0.,-0
 .03346042,0.73403152,0.,0.,-0.06568349,0.,0.,0.13964345,-0.18606832,0.
 12773304,0.,-0.02555117,0.02970122,0.,0.75259197,0.05510119,-0.2915734
 1,0.,0.08446238,0.04043645,0.,0.00000291,0.67559191,0.,0.,-0.06569653,
 0.,0.,0.00835388,0.,0.,0.13964546,-0.13012738,-0.12135586,0.,-0.009508
 82,-0.02912942,0.,0.01167089,0.01524032,0.,0.13409674,-0.12134143,-0.2
 7016745,0.,0.00300604,0.00369765,0.,-0.01690077,-0.01752590,0.,0.13054
 072,0.28471617,0.,0.,-0.03820216,0.,0.,0.00352011,0.,0.,0.00352104,0.,
 0.,0.02624158,-0.02555117,-0.02970122,0.,-0.18606832,-0.12773304,0.,-0
 .00182787,0.,0.,-0.00578903,0.00044764,0.,0.75259197,-0.08446238,0.040
 43645,0.,-0.05510119,-0.29157341,0.,0.,-0.08051140,0.,0.00108332,0.001
 83697,0.,-0.00000291,0.67559191,0.,0.,0.00835388,0.,0.,-0.06569653,0.,
 0.,-0.00796478,0.,0.,0.00751575,0.,0.,0.13964546,-0.00950882,0.0291294
 2,0.,-0.13012738,0.12135586,0.,-0.00578903,-0.00108332,0.,0.00073779,-
 0.00042401,0.,0.01167089,-0.01524032,0.,0.13409674,-0.00300604,0.00369
 765,0.,0.12134143,-0.27016745,0.,-0.00044764,0.00183697,0.,0.00042401,
 0.00070053,0.,0.01690077,-0.01752590,0.,-0.13054072,0.28471617,0.,0.,0
 .00352011,0.,0.,-0.03820216,0.,0.,0.00751575,0.,0.,-0.00412151,0.,0.,0
 .00352104,0.,0.,0.02624158,-0.06087022,0.03390832,0.,0.07325189,0.0274
 1448,0.,-0.02555113,-0.08446232,0.,-0.00084351,0.00096243,0.,-0.186069
 60,0.05510371,0.,-0.00073308,-0.00400858,0.,0.69512460,0.03390841,-0.0
 2181440,0.,-0.02741451,-0.05862731,0.,-0.02970122,0.04043648,0.,0.0009
 5896,0.00026245,0.,0.12773525,-0.29157754,0.,-0.00337140,-0.00323055,0
 .,0.03345661,0.73403805,0.,0.,-0.00796154,0.,0.,0.00834986,0.,0.,0.008
 35389,0.,0.,-0.00086661,0.,0.,-0.06569611,0.,0.,0.00751480,0.,0.,0.139
 64362,0.00059610,-0.00324913,0.,-0.01093604,0.00381955,0.,0.00081019,0
 .,0.,-0.00067081,0.00017453,0.,-0.34009781,0.00000046,0.,0.00071290,-0
 .00040137,0.,-0.01093600,-0.00381951,0.,0.35996892,-0.00260616,-0.0045
 5235,0.,-0.02829912,0.00509797,0.,0.,-0.00140023,0.,-0.00139687,0.0000
 3722,0.,0.00000052,-0.06002472,0.,0.00043658,0.00073764,0.,0.02829914,
 0.00509802,0.,-0.00000048,0.05866901,0.,0.,0.00751007,0.,0.,0.00351807
 ,0.,0.,-0.00086753,0.,0.,0.00009796,0.,0.,-0.03820170,0.,0.,-0.0041191
 6,0.,0.,0.00351812,0.,0.,0.02625188,0.07325189,-0.02741448,0.,-0.06087
 022,-0.03390832,0.,-0.18606960,-0.05510371,0.,-0.00073308,0.00400858,0
 .,-0.02555113,0.08446232,0.,-0.00084351,-0.00096243,0.,-0.34433485,-0.
 03627871,0.,0.00059612,0.00260614,0.,0.69512460,0.02741451,-0.05862731
 ,0.,-0.03390841,-0.02181440,0.,-0.12773525,-0.29157754,0.,0.00337140,-
 0.00323055,0.,0.02970122,0.04043648,0.,-0.00095896,0.00026245,0.,0.036
 27871,-0.13356091,0.,0.00324912,-0.00455233,0.,-0.03345661,0.73403805,
 0.,0.,0.00834986,0.,0.,-0.00796154,0.,0.,-0.06569611,0.,0.,0.00751480,
 0.,0.,0.00835389,0.,0.,-0.00086661,0.,0.,-0.06568419,0.,0.,0.00751016,
 0.,0.,0.13964362,-0.00084352,0.00095897,0.,-0.00073309,0.00337140,0.,-
 0.00578908,0.00108329,0.,0.00006466,-0.00008755,0.,0.01167095,0.015240
 28,0.,0.00038966,0.00078755,0.,-0.13012522,-0.12135437,0.,0.00071289,-
 0.00043663,0.,-0.00950900,-0.02912960,0.,0.13409479,0.00096241,0.00026
 246,0.,0.00400859,-0.00323047,0.,0.00044760,0.00183696,0.,-0.00008756,
 -0.00003604,0.,-0.01690064,-0.01752556,0.,-0.00078755,-0.00102868,0.,-
 0.12134033,-0.27016944,0.,0.00040137,0.00073764,0.,0.00300601,0.003697
 47,0.,0.13053955,0.28471790,0.,0.,-0.00086661,0.,0.,0.00751489,0.,0.,0
 .00751566,0.,0.,-0.00120121,0.,0.,0.00352097,0.,0.,0.00009940,0.,0.,-0
 .03820215,0.,0.,-0.00411922,0.,0.,0.00352016,0.,0.,0.02624159,-0.00073
 309,-0.00337140,0.,-0.00084352,-0.00095897,0.,0.01167095,-0.01524028,0
 .,0.00038966,-0.00078755,0.,-0.00578908,-0.00108329,0.,0.00006466,0.00
 008755,0.,-0.00950900,0.02912960,0.,-0.00067081,0.00139688,0.,-0.13012
 522,0.12135437,0.,0.00073776,-0.00042398,0.,0.13409479,-0.00400859,-0.
 00323047,0.,-0.00096241,0.00026246,0.,0.01690064,-0.01752556,0.,0.0007
 8755,-0.00102868,0.,-0.00044760,0.00183696,0.,0.00008756,-0.00003604,0
 .,-0.00300601,0.00369747,0.,-0.00017453,0.00003721,0.,0.12134033,-0.27
 016944,0.,0.00042398,0.00070057,0.,-0.13053955,0.28471790,0.,0.,0.0075
 1489,0.,0.,-0.00086661,0.,0.,0.00352097,0.,0.,0.00009940,0.,0.,0.00751
 566,0.,0.,-0.00120121,0.,0.,0.00352016,0.,0.,0.00009795,0.,0.,-0.03820
 215,0.,0.,-0.00412143,0.,0.,0.02624159,-0.01093604,-0.00381955,0.,0.00
 059610,0.00324913,0.,-0.34009781,-0.00000046,0.,0.00071290,0.00040137,
 0.,0.00081019,0.,0.,-0.00067081,-0.00017453,0.,0.00059612,-0.00324912,
 0.,-0.00008565,0.,0.,-0.01093600,0.00381951,0.,-0.00067081,0.00017453,
 0.,0.00071289,-0.00040137,0.,0.35996892,0.02829912,0.00509797,0.,0.002
 60616,-0.00455235,0.,-0.00000052,-0.06002472,0.,-0.00043658,0.00073764
 ,0.,0.,-0.00140023,0.,0.00139687,0.00003722,0.,-0.00260614,-0.00455233
 ,0.,0.,0.00011494,0.,-0.02829914,0.00509802,0.,-0.00139688,0.00003721,
 0.,0.00043663,0.00073764,0.,0.00000048,0.05866901,0.,0.,0.00351807,0.,
 0.,0.00751007,0.,0.,-0.03820170,0.,0.,-0.00411916,0.,0.,-0.00086753,0.
 ,0.,0.00009796,0.,0.,0.00751016,0.,0.,-0.00119659,0.,0.,0.00351812,0.,
 0.,0.00009795,0.,0.,-0.00411922,0.,0.,0.02625188\\0.00000007,0.0000014
 8,0.,-0.00000007,0.00000148,0.,-0.00000150,-0.00000068,0.,0.00000021,-
 0.00000097,0.,0.00000150,-0.00000068,0.,-0.00000021,-0.00000097,0.,-0.
 00000294,-0.00000036,0.,0.00000016,0.00000010,0.,0.00000294,-0.0000003
 6,0.,0.00000056,0.00000044,0.,-0.00000056,0.00000044,0.,-0.00000016,0.
 00000010,0.\\\@
 The archive entry for this job was punched.


 There are more things in heaven and earth, Horatio,
 than are dreamt of in your philosophy.
                   -- Hamlet, Act I, Scene 5
 Job cpu time:       0 days  0 hours 12 minutes 25.8 seconds.
 Elapsed time:       0 days  0 hours  0 minutes 14.4 seconds.
 File lengths (MBytes):  RWF=    272 Int=      0 D2E=      0 Chk=     32 Scr=     32
 Normal termination of Gaussian 16 at Tue Sep  5 13:25:31 2023.
