 Entering Gaussian System, Link 0=g16
 Initial command:
 /home/pkg/application/gaussian/g16/l1.exe "/home/ru80john/tmp/46094/Gau-506505.inp" -scrdir="/home/ru80john/tmp/46094/"
 Entering Link 1 = /home/pkg/application/gaussian/g16/l1.exe PID=    506507.
  
 Copyright (c) 1988-2017, Gaussian, Inc.  All Rights Reserved.
  
 This is part of the Gaussian(R) 16 program.  It is based on
 the Gaussian(R) 09 system (copyright 2009, Gaussian, Inc.),
 the Gaussian(R) 03 system (copyright 2003, Gaussian, Inc.),
 the Gaussian(R) 98 system (copyright 1998, Gaussian, Inc.),
 the Gaussian(R) 94 system (copyright 1995, Gaussian, Inc.),
 the Gaussian 92(TM) system (copyright 1992, Gaussian, Inc.),
 the Gaussian 90(TM) system (copyright 1990, Gaussian, Inc.),
 the Gaussian 88(TM) system (copyright 1988, Gaussian, Inc.),
 the Gaussian 86(TM) system (copyright 1986, Carnegie Mellon
 University), and the Gaussian 82(TM) system (copyright 1983,
 Carnegie Mellon University). Gaussian is a federally registered
 trademark of Gaussian, Inc.
  
 This software contains proprietary and confidential information,
 including trade secrets, belonging to Gaussian, Inc.
  
 This software is provided under written license and may be
 used, copied, transmitted, or stored only in accord with that
 written license.
  
 The following legend is applicable only to US Government
 contracts under FAR:
  
                    RESTRICTED RIGHTS LEGEND
  
 Use, reproduction and disclosure by the US Government is
 subject to restrictions as set forth in subparagraphs (a)
 and (c) of the Commercial Computer Software - Restricted
 Rights clause in FAR 52.227-19.
  
 Gaussian, Inc.
 340 Quinnipiac St., Bldg. 40, Wallingford CT 06492
  
  
 ---------------------------------------------------------------
 Warning -- This program may not be used in any manner that
 competes with the business of Gaussian, Inc. or will provide
 assistance to any competitor of Gaussian, Inc.  The licensee
 of this program is prohibited from giving any competitor of
 Gaussian, Inc. access to this program.  By using this program,
 the user acknowledges that Gaussian, Inc. is engaged in the
 business of creating and licensing software in the field of
 computational chemistry and represents and warrants to the
 licensee that it is not a competitor of Gaussian, Inc. and that
 it will not use this program in any manner prohibited above.
 ---------------------------------------------------------------
  

 Cite this work as:
 Gaussian 16, Revision B.01,
 M. J. Frisch, G. W. Trucks, H. B. Schlegel, G. E. Scuseria, 
 M. A. Robb, J. R. Cheeseman, G. Scalmani, V. Barone, 
 G. A. Petersson, H. Nakatsuji, X. Li, M. Caricato, A. V. Marenich, 
 J. Bloino, B. G. Janesko, R. Gomperts, B. Mennucci, H. P. Hratchian, 
 J. V. Ortiz, A. F. Izmaylov, J. L. Sonnenberg, D. Williams-Young, 
 F. Ding, F. Lipparini, F. Egidi, J. Goings, B. Peng, A. Petrone, 
 T. Henderson, D. Ranasinghe, V. G. Zakrzewski, J. Gao, N. Rega, 
 G. Zheng, W. Liang, M. Hada, M. Ehara, K. Toyota, R. Fukuda, 
 J. Hasegawa, M. Ishida, T. Nakajima, Y. Honda, O. Kitao, H. Nakai, 
 T. Vreven, K. Throssell, J. A. Montgomery, Jr., J. E. Peralta, 
 F. Ogliaro, M. J. Bearpark, J. J. Heyd, E. N. Brothers, K. N. Kudin, 
 V. N. Staroverov, T. A. Keith, R. Kobayashi, J. Normand, 
 K. Raghavachari, A. P. Rendell, J. C. Burant, S. S. Iyengar, 
 J. Tomasi, M. Cossi, J. M. Millam, M. Klene, C. Adamo, R. Cammi, 
 J. W. Ochterski, R. L. Martin, K. Morokuma, O. Farkas, 
 J. B. Foresman, and D. J. Fox, Gaussian, Inc., Wallingford CT, 2016.
 
 ******************************************
 Gaussian 16:  AM64L-G16RevB.01 20-Dec-2017
                27-Dec-2023 
 ******************************************
 %nprocs=12
 Will use up to   12 processors via shared memory.
 %mem=50000MB
 %chk=BEN_hessian.chk
 -------------------------------------------------------
 #Opt Freq wb97xD 6-311++G(d, p) pop=(CM5, ESP, NBOREAD)
 -------------------------------------------------------
 1/18=20,19=15,26=3,38=1/1,3;
 2/9=110,12=2,17=6,18=5,40=1/2;
 3/5=4,6=6,7=1111,11=2,25=1,30=1,71=1,74=-58/1,2,3;
 4//1;
 5/5=2,38=5/2;
 6/7=2,8=2,9=2,10=2,15=8,28=1,40=2,79=1/1,2,7;
 7//1,2,3,16;
 1/18=20,19=15,26=3/3(2);
 2/9=110/2;
 99//99;
 2/9=110/2;
 3/5=4,6=6,7=1111,11=2,25=1,30=1,71=1,74=-58/1,2,3;
 4/5=5,16=3,69=1/1;
 5/5=2,38=5/2;
 7//1,2,3,16;
 1/18=20,19=15,26=3/3(-5);
 2/9=110/2;
 6/7=2,8=2,9=2,10=2,15=8,19=2,28=1,40=2,79=1/1,2,7;
 99/9=1/99;
 ---
 BEN
 ---
 Symbolic Z-matrix:
 Charge =  0 Multiplicity = 1
 C                     0.        0.695     1.205 
 C                     0.       -0.695     1.205 
 C                     0.        1.391     0. 
 H                     0.        1.238     2.144 
 C                     0.       -1.391     0. 
 H                     0.       -1.238     2.144 
 C                     0.       -0.695    -1.205 
 H                     0.       -2.475     0. 
 C                     0.        0.695    -1.205 
 H                     0.       -1.238    -2.144 
 H                     0.        1.238    -2.144 
 H                     0.        2.475     0. 
 

 GradGradGradGradGradGradGradGradGradGradGradGradGradGradGradGradGradGrad
 Berny optimization.
 Initialization pass.
                           ----------------------------
                           !    Initial Parameters    !
                           ! (Angstroms and Degrees)  !
 --------------------------                            --------------------------
 ! Name  Definition              Value          Derivative Info.                !
 --------------------------------------------------------------------------------
 ! R1    R(1,2)                  1.39           estimate D2E/DX2                !
 ! R2    R(1,3)                  1.3916         estimate D2E/DX2                !
 ! R3    R(1,4)                  1.0847         estimate D2E/DX2                !
 ! R4    R(2,5)                  1.3916         estimate D2E/DX2                !
 ! R5    R(2,6)                  1.0847         estimate D2E/DX2                !
 ! R6    R(3,9)                  1.3916         estimate D2E/DX2                !
 ! R7    R(3,12)                 1.084          estimate D2E/DX2                !
 ! R8    R(5,7)                  1.3916         estimate D2E/DX2                !
 ! R9    R(5,8)                  1.084          estimate D2E/DX2                !
 ! R10   R(7,9)                  1.39           estimate D2E/DX2                !
 ! R11   R(7,10)                 1.0847         estimate D2E/DX2                !
 ! R12   R(9,11)                 1.0847         estimate D2E/DX2                !
 ! A1    A(2,1,3)              120.0104         estimate D2E/DX2                !
 ! A2    A(2,1,4)              120.0397         estimate D2E/DX2                !
 ! A3    A(3,1,4)              119.9498         estimate D2E/DX2                !
 ! A4    A(1,2,5)              120.0104         estimate D2E/DX2                !
 ! A5    A(1,2,6)              120.0397         estimate D2E/DX2                !
 ! A6    A(5,2,6)              119.9498         estimate D2E/DX2                !
 ! A7    A(1,3,9)              119.9791         estimate D2E/DX2                !
 ! A8    A(1,3,12)             120.0104         estimate D2E/DX2                !
 ! A9    A(9,3,12)             120.0104         estimate D2E/DX2                !
 ! A10   A(2,5,7)              119.9791         estimate D2E/DX2                !
 ! A11   A(2,5,8)              120.0104         estimate D2E/DX2                !
 ! A12   A(7,5,8)              120.0104         estimate D2E/DX2                !
 ! A13   A(5,7,9)              120.0104         estimate D2E/DX2                !
 ! A14   A(5,7,10)             119.9498         estimate D2E/DX2                !
 ! A15   A(9,7,10)             120.0397         estimate D2E/DX2                !
 ! A16   A(3,9,7)              120.0104         estimate D2E/DX2                !
 ! A17   A(3,9,11)             119.9498         estimate D2E/DX2                !
 ! A18   A(7,9,11)             120.0397         estimate D2E/DX2                !
 ! D1    D(3,1,2,5)              0.0            estimate D2E/DX2                !
 ! D2    D(3,1,2,6)            180.0            estimate D2E/DX2                !
 ! D3    D(4,1,2,5)            180.0            estimate D2E/DX2                !
 ! D4    D(4,1,2,6)              0.0            estimate D2E/DX2                !
 ! D5    D(2,1,3,9)              0.0            estimate D2E/DX2                !
 ! D6    D(2,1,3,12)           180.0            estimate D2E/DX2                !
 ! D7    D(4,1,3,9)            180.0            estimate D2E/DX2                !
 ! D8    D(4,1,3,12)             0.0            estimate D2E/DX2                !
 ! D9    D(1,2,5,7)              0.0            estimate D2E/DX2                !
 ! D10   D(1,2,5,8)            180.0            estimate D2E/DX2                !
 ! D11   D(6,2,5,7)            180.0            estimate D2E/DX2                !
 ! D12   D(6,2,5,8)              0.0            estimate D2E/DX2                !
 ! D13   D(1,3,9,7)              0.0            estimate D2E/DX2                !
 ! D14   D(1,3,9,11)           180.0            estimate D2E/DX2                !
 ! D15   D(12,3,9,7)           180.0            estimate D2E/DX2                !
 ! D16   D(12,3,9,11)            0.0            estimate D2E/DX2                !
 ! D17   D(2,5,7,9)              0.0            estimate D2E/DX2                !
 ! D18   D(2,5,7,10)           180.0            estimate D2E/DX2                !
 ! D19   D(8,5,7,9)            180.0            estimate D2E/DX2                !
 ! D20   D(8,5,7,10)             0.0            estimate D2E/DX2                !
 ! D21   D(5,7,9,3)              0.0            estimate D2E/DX2                !
 ! D22   D(5,7,9,11)           180.0            estimate D2E/DX2                !
 ! D23   D(10,7,9,3)           180.0            estimate D2E/DX2                !
 ! D24   D(10,7,9,11)            0.0            estimate D2E/DX2                !
 --------------------------------------------------------------------------------
 Trust Radius=3.00D-01 FncErr=1.00D-07 GrdErr=1.00D-06 EigMax=2.50D+02 EigMin=1.00D-04
 Number of steps in this run=     64 maximum allowed number of steps=    100.
 GradGradGradGradGradGradGradGradGradGradGradGradGradGradGradGradGradGrad

                          Input orientation:                          
 ---------------------------------------------------------------------
 Center     Atomic      Atomic             Coordinates (Angstroms)
 Number     Number       Type             X           Y           Z
 ---------------------------------------------------------------------
      1          6           0        0.000000    0.695000    1.205000
      2          6           0        0.000000   -0.695000    1.205000
      3          6           0        0.000000    1.391000    0.000000
      4          1           0        0.000000    1.238000    2.144000
      5          6           0        0.000000   -1.391000    0.000000
      6          1           0        0.000000   -1.238000    2.144000
      7          6           0        0.000000   -0.695000   -1.205000
      8          1           0        0.000000   -2.475000    0.000000
      9          6           0        0.000000    0.695000   -1.205000
     10          1           0        0.000000   -1.238000   -2.144000
     11          1           0        0.000000    1.238000   -2.144000
     12          1           0        0.000000    2.475000    0.000000
 ---------------------------------------------------------------------
                    Distance matrix (angstroms):
                    1          2          3          4          5
     1  C    0.000000
     2  C    1.390000   0.000000
     3  C    1.391561   2.409029   0.000000
     4  H    1.084698   2.149002   2.149452   0.000000
     5  C    2.409029   1.391561   2.782000   3.392400   0.000000
     6  H    2.149002   1.084698   3.392400   2.476000   2.149452
     7  C    2.782121   2.410000   2.409029   3.866819   1.391561
     8  H    3.391301   2.149517   3.866000   4.287552   1.084000
     9  C    2.410000   2.782121   1.391561   3.392735   2.409029
    10  H    3.866819   3.392735   3.392400   4.951517   2.149452
    11  H    3.392735   3.866819   2.149452   4.288000   3.392400
    12  H    2.149517   3.391301   1.084000   2.475259   3.866000
                    6          7          8          9         10
     6  H    0.000000
     7  C    3.392735   0.000000
     8  H    2.475259   2.149517   0.000000
     9  C    3.866819   1.390000   3.391301   0.000000
    10  H    4.288000   1.084698   2.475259   2.149002   0.000000
    11  H    4.951517   2.149002   4.287552   1.084698   2.476000
    12  H    4.287552   3.391301   4.950000   2.149517   4.287552
                   11         12
    11  H    0.000000
    12  H    2.475259   0.000000
 Stoichiometry    C6H6
 Framework group  D2H[C2"(HC.CH),SG(C4H4)]
 Deg. of freedom     6
 Full point group                 D2H     NOp   8
 Largest Abelian subgroup         D2H     NOp   8
 Largest concise Abelian subgroup D2      NOp   4
                         Standard orientation:                         
 ---------------------------------------------------------------------
 Center     Atomic      Atomic             Coordinates (Angstroms)
 Number     Number       Type             X           Y           Z
 ---------------------------------------------------------------------
      1          6           0        0.000000    1.205000    0.695000
      2          6           0        0.000000    1.205000   -0.695000
      3          6           0        0.000000    0.000000    1.391000
      4          1           0        0.000000    2.144000    1.238000
      5          6           0        0.000000   -0.000000   -1.391000
      6          1           0        0.000000    2.144000   -1.238000
      7          6           0       -0.000000   -1.205000   -0.695000
      8          1           0       -0.000000    0.000000   -2.475000
      9          6           0       -0.000000   -1.205000    0.695000
     10          1           0       -0.000000   -2.144000   -1.238000
     11          1           0       -0.000000   -2.144000    1.238000
     12          1           0       -0.000000    0.000000    2.475000
 ---------------------------------------------------------------------
 Rotational constants (GHZ):           5.7333004           5.7281008           2.8653497
 Standard basis: 6-311++G(d,p) (5D, 7F)
 There are    40 symmetry adapted cartesian basis functions of AG  symmetry.
 There are     8 symmetry adapted cartesian basis functions of B1G symmetry.
 There are    13 symmetry adapted cartesian basis functions of B2G symmetry.
 There are    29 symmetry adapted cartesian basis functions of B3G symmetry.
 There are     8 symmetry adapted cartesian basis functions of AU  symmetry.
 There are    40 symmetry adapted cartesian basis functions of B1U symmetry.
 There are    29 symmetry adapted cartesian basis functions of B2U symmetry.
 There are    13 symmetry adapted cartesian basis functions of B3U symmetry.
 There are    38 symmetry adapted basis functions of AG  symmetry.
 There are     8 symmetry adapted basis functions of B1G symmetry.
 There are    13 symmetry adapted basis functions of B2G symmetry.
 There are    28 symmetry adapted basis functions of B3G symmetry.
 There are     8 symmetry adapted basis functions of AU  symmetry.
 There are    38 symmetry adapted basis functions of B1U symmetry.
 There are    28 symmetry adapted basis functions of B2U symmetry.
 There are    13 symmetry adapted basis functions of B3U symmetry.
   174 basis functions,   270 primitive gaussians,   180 cartesian basis functions
    21 alpha electrons       21 beta electrons
       nuclear repulsion energy       203.9502762531 Hartrees.
 NAtoms=   12 NActive=   12 NUniq=    4 SFac= 4.00D+00 NAtFMM=   60 NAOKFM=F Big=F
 Integral buffers will be    131072 words long.
 Raffenetti 2 integral format.
 Two-electron integral symmetry is turned on.
 Nuclear repulsion after empirical dispersion term =      203.9460912103 Hartrees.
 One-electron integrals computed using PRISM.
 NBasis=   174 RedAO= T EigKep=  1.04D-06  NBF=    38     8    13    28     8    38    28    13
 NBsUse=   174 1.00D-06 EigRej= -1.00D+00 NBFU=    38     8    13    28     8    38    28    13
 ExpMin= 3.60D-02 ExpMax= 4.56D+03 ExpMxC= 6.82D+02 IAcc=3 IRadAn=         5 AccDes= 0.00D+00
 Harris functional with IExCor= 4639 and IRadAn=       5 diagonalized for initial guess.
 HarFok:  IExCor= 4639 AccDes= 0.00D+00 IRadAn=         5 IDoV= 1 UseB2=F ITyADJ=14
 ICtDFT=  3500011 ScaDFX=  1.000000  1.000000  1.000000  1.000000
 FoFCou: FMM=F IPFlag=           0 FMFlag=      100000 FMFlg1=           0
         NFxFlg=           0 DoJE=T BraDBF=F KetDBF=T FulRan=T
         wScrn=  0.000000 ICntrl=       500 IOpCl=  0 I1Cent=   200000004 NGrid=           0
         NMat0=    1 NMatS0=      1 NMatT0=    0 NMatD0=    1 NMtDS0=    0 NMtDT0=    0
 Petite list used in FoFCou.
 Initial guess orbital symmetries:
       Occupied  (AG) (B2U) (B1U) (B3G) (AG) (B1U) (AG) (B2U) (B1U)
                 (AG) (B3G) (AG) (B2U) (B1U) (B2U) (B1U) (B3U)
                 (AG) (B3G) (B1G) (B2G)
       Virtual   (B3U) (AU) (AG) (B2U) (B1U) (B3G) (AG) (B1U) (B3U)
                 (AG) (B1G) (B2G) (B2U) (AG) (B2U) (B1U) (AG) (B3G)
                 (B2G) (B3U) (AU) (B2U) (B1U) (B1U) (AG) (B3G)
                 (B2G) (B2U) (B1U) (AG) (B3G) (AG) (B3G) (B2U)
                 (B1U) (B1U) (AG) (B3G) (B1U) (AG) (B3G) (B2U)
                 (B1U) (B2U) (AG) (B3U) (B3G) (B1U) (B2U) (B1U)
                 (AG) (B3G) (B1G) (B2G) (AG) (B3U) (AU) (B2G) (AG)
                 (B3G) (B2U) (B1U) (AG) (B1U) (B2U) (B1U) (B3G)
                 (B3G) (AG) (B1U) (B2U) (B1U) (B3U) (B1G) (AG)
                 (B3G) (B1G) (B2G) (B3U) (AU) (AG) (B1U) (B2U)
                 (B2U) (B1U) (AG) (B3U) (AU) (B2G) (B3G) (AG) (B2U)
                 (B1U) (B3U) (B1G) (B2G) (AG) (B3G) (B2U) (B1G)
                 (B2G) (B2U) (B1U) (B3G) (B1U) (AG) (B3G) (B3U)
                 (AU) (B2G) (AU) (AG) (B3G) (AG) (B2U) (B1U) (B2U)
                 (B1U) (B3U) (B1U) (AG) (B1U) (B2U) (AG) (B3G)
                 (B1G) (B2G) (B1U) (B3U) (AU) (B3G) (AG) (B3G)
                 (B2G) (B2U) (B3G) (AG) (B1U) (B2U) (AG) (B1U)
                 (B3G) (AG) (B1U) (B1U) (B2U) (B3G) (AG) (B2U)
                 (B1U) (AG) (B3G) (B1U)
 The electronic state of the initial guess is 1-AG.
 Keep R1 ints in memory in symmetry-blocked form, NReq=263029049.
 Requested convergence on RMS density matrix=1.00D-08 within 128 cycles.
 Requested convergence on MAX density matrix=1.00D-06.
 Requested convergence on             energy=1.00D-06.
 No special actions if energy rises.
 SCF Done:  E(RwB97XD) =  -232.221019473     A.U. after   10 cycles
            NFock= 10  Conv=0.56D-08     -V/T= 2.0045

 **********************************************************************

            Population analysis using the SCF Density.

 **********************************************************************

 Orbital symmetries:
       Occupied  (AG) (B1U) (B2U) (AG) (B3G) (B1U) (AG) (B2U) (B1U)
                 (AG) (B3G) (AG) (B1U) (B2U) (B2U) (B1U) (B3U)
                 (AG) (B3G) (B1G) (B2G)
       Virtual   (AG) (B2U) (B1U) (B3U) (AU) (B3G) (AG) (B1U) (B3U)
                 (AG) (B1G) (B2G) (B2U) (AG) (B2U) (B1U) (AG) (B3G)
                 (B2G) (B3U) (AU) (B1U) (AG) (B3G) (B2U) (B1U)
                 (B2U) (B1U) (B2G) (AG) (B3G) (AG) (B3G) (B1U)
                 (B2U) (B1U) (AG) (B3G) (B1U) (AG) (B3G) (B2U)
                 (B1U) (B2U) (AG) (B3U) (B1U) (B2U) (B1U) (B3G)
                 (AG) (B3G) (B1G) (B2G) (AG) (B3U) (AU) (B2G) (AG)
                 (B3G) (B2U) (B1U) (AG) (B1U) (B2U) (B1U) (B3G)
                 (AG) (B1U) (B3G) (B2U) (B1U) (B3U) (B1G) (B3G)
                 (AG) (B1G) (B2G) (B3U) (AU) (AG) (B1U) (B2U) (B2U)
                 (B1U) (AG) (B2G) (B3U) (AU) (AG) (B3G) (B2U) (B1U)
                 (B3U) (B1G) (B2G) (AG) (B3G) (B2U) (B1G) (B2G)
                 (B2U) (B1U) (B3G) (B1U) (AG) (B3G) (B3U) (AU)
                 (B2G) (AU) (AG) (B3G) (AG) (B2U) (B1U) (B2U) (B1U)
                 (B3U) (B1U) (AG) (B1U) (B2U) (AG) (B3G) (B1U)
                 (B1G) (B2G) (B3U) (AU) (B3G) (AG) (B3G) (B2G)
                 (B2U) (B3G) (AG) (B1U) (B2U) (AG) (B1U) (B3G)
                 (AG) (B1U) (B1U) (B2U) (B3G) (AG) (B2U) (B1U)
                 (AG) (B3G) (B1U)
 The electronic state is 1-AG.
 Alpha  occ. eigenvalues --  -10.29075 -10.29051 -10.29047 -10.28991 -10.28987
 Alpha  occ. eigenvalues --  -10.28961  -0.96164  -0.84995  -0.84960  -0.70053
 Alpha  occ. eigenvalues --   -0.70020  -0.61949  -0.55179  -0.53809  -0.51073
 Alpha  occ. eigenvalues --   -0.51048  -0.46165  -0.42885  -0.42830  -0.33395
 Alpha  occ. eigenvalues --   -0.33355
 Alpha virt. eigenvalues --    0.04259   0.05172   0.05172   0.05333   0.05371
 Alpha virt. eigenvalues --    0.06951   0.06951   0.09145   0.12214   0.13693
 Alpha virt. eigenvalues --    0.14775   0.14778   0.15965   0.16743   0.17208
 Alpha virt. eigenvalues --    0.17212   0.17261   0.17261   0.19561   0.19585
 Alpha virt. eigenvalues --    0.19591   0.20771   0.21008   0.21009   0.21153
 Alpha virt. eigenvalues --    0.21157   0.25066   0.25070   0.26750   0.28100
 Alpha virt. eigenvalues --    0.28102   0.29563   0.30807   0.33356   0.34428
 Alpha virt. eigenvalues --    0.34477   0.36365   0.36386   0.38315   0.42521
 Alpha virt. eigenvalues --    0.42550   0.43184   0.43217   0.52418   0.54544
 Alpha virt. eigenvalues --    0.60521   0.62459   0.62764   0.62784   0.63714
 Alpha virt. eigenvalues --    0.64491   0.64528   0.64952   0.64968   0.69029
 Alpha virt. eigenvalues --    0.69796   0.69807   0.75726   0.80968   0.81018
 Alpha virt. eigenvalues --    0.81896   0.81955   0.86097   0.89509   0.92186
 Alpha virt. eigenvalues --    0.92188   0.95970   0.95978   0.96011   0.96596
 Alpha virt. eigenvalues --    0.98078   0.98115   1.01685   1.09401   1.10369
 Alpha virt. eigenvalues --    1.10371   1.16198   1.16208   1.22446   1.22453
 Alpha virt. eigenvalues --    1.38489   1.40851   1.54183   1.60212   1.60244
 Alpha virt. eigenvalues --    1.61197   1.65424   1.65723   1.65733   1.72834
 Alpha virt. eigenvalues --    1.72836   1.74956   1.74980   1.80067   1.85944
 Alpha virt. eigenvalues --    1.86008   1.90785   1.90847   1.93748   2.01643
 Alpha virt. eigenvalues --    2.01728   2.03510   2.03535   2.05183   2.07966
 Alpha virt. eigenvalues --    2.11454   2.11537   2.16692   2.16750   2.41315
 Alpha virt. eigenvalues --    2.43425   2.47794   2.51237   2.51288   2.54692
 Alpha virt. eigenvalues --    2.54754   2.71732   2.71795   2.76149   2.76396
 Alpha virt. eigenvalues --    2.77568   2.81012   2.81016   2.83919   2.83946
 Alpha virt. eigenvalues --    2.87801   2.90039   2.90054   2.99807   2.99824
 Alpha virt. eigenvalues --    3.00711   3.04947   3.05022   3.18743   3.21991
 Alpha virt. eigenvalues --    3.45010   3.45203   3.58736   3.58860   3.60614
 Alpha virt. eigenvalues --    3.78596   4.09335   4.09399   4.18261   4.25383
 Alpha virt. eigenvalues --    4.25391   4.94956  23.71690  24.10838  24.11200
 Alpha virt. eigenvalues --   24.23422  24.23787  24.34794
          Condensed to atoms (all electrons):
               1          2          3          4          5          6
     1  C    5.458910   0.034898   0.036352   0.342323   0.390158   0.003276
     2  C    0.034898   5.458910   0.390158   0.003276   0.036352   0.342323
     3  C    0.036352   0.390158   5.457131   0.003003  -0.440056  -0.016438
     4  H    0.342323   0.003276   0.003003   0.470689  -0.016438   0.001716
     5  C    0.390158   0.036352  -0.440056  -0.016438   5.457131   0.003003
     6  H    0.003276   0.342323  -0.016438   0.001716   0.003003   0.470689
     7  C   -0.440604   0.389926   0.390158   0.012506   0.036352  -0.016507
     8  H   -0.016376   0.002890   0.012400  -0.000553   0.342879   0.001740
     9  C    0.389926  -0.440604   0.036352  -0.016507   0.390158   0.012506
    10  H    0.012506  -0.016507  -0.016438   0.000801   0.003003  -0.000557
    11  H   -0.016507   0.012506   0.003003  -0.000557  -0.016438   0.000801
    12  H    0.002890  -0.016376   0.342879   0.001740   0.012400  -0.000553
               7          8          9         10         11         12
     1  C   -0.440604  -0.016376   0.389926   0.012506  -0.016507   0.002890
     2  C    0.389926   0.002890  -0.440604  -0.016507   0.012506  -0.016376
     3  C    0.390158   0.012400   0.036352  -0.016438   0.003003   0.342879
     4  H    0.012506  -0.000553  -0.016507   0.000801  -0.000557   0.001740
     5  C    0.036352   0.342879   0.390158   0.003003  -0.016438   0.012400
     6  H   -0.016507   0.001740   0.012506  -0.000557   0.000801  -0.000553
     7  C    5.458910   0.002890   0.034898   0.342323   0.003276  -0.016376
     8  H    0.002890   0.470521  -0.016376   0.001740  -0.000553   0.000796
     9  C    0.034898  -0.016376   5.458910   0.003276   0.342323   0.002890
    10  H    0.342323   0.001740   0.003276   0.470689   0.001716  -0.000553
    11  H    0.003276  -0.000553   0.342323   0.001716   0.470689   0.001740
    12  H   -0.016376   0.000796   0.002890  -0.000553   0.001740   0.470521
 Mulliken charges:
               1
     1  C   -0.197752
     2  C   -0.197752
     3  C   -0.198502
     4  H    0.198002
     5  C   -0.198502
     6  H    0.198002
     7  C   -0.197752
     8  H    0.198002
     9  C   -0.197752
    10  H    0.198002
    11  H    0.198002
    12  H    0.198002
 Sum of Mulliken charges =  -0.00000
 Mulliken charges with hydrogens summed into heavy atoms:
               1
     1  C    0.000250
     2  C    0.000250
     3  C   -0.000500
     5  C   -0.000500
     7  C    0.000250
     9  C    0.000250
 Electronic spatial extent (au):  <R**2>=            456.8491
 Charge=             -0.0000 electrons
 Dipole moment (field-independent basis, Debye):
    X=             -0.0000    Y=              0.0000    Z=             -0.0000  Tot=              0.0000
 Quadrupole moment (field-independent basis, Debye-Ang):
   XX=            -40.1551   YY=            -31.5655   ZZ=            -31.5591
   XY=              0.0000   XZ=             -0.0000   YZ=             -0.0000
 Traceless Quadrupole moment (field-independent basis, Debye-Ang):
   XX=             -5.7285   YY=              2.8610   ZZ=              2.8675
   XY=              0.0000   XZ=             -0.0000   YZ=             -0.0000
 Octapole moment (field-independent basis, Debye-Ang**2):
  XXX=              0.0000  YYY=             -0.0000  ZZZ=              0.0000  XYY=             -0.0000
  XXY=             -0.0000  XXZ=             -0.0000  XZZ=             -0.0000  YZZ=             -0.0000
  YYZ=             -0.0000  XYZ=             -0.0000
 Hexadecapole moment (field-independent basis, Debye-Ang**3):
 XXXX=            -48.5051 YYYY=           -268.4979 ZZZZ=           -268.2061 XXXY=             -0.0000
 XXXZ=              0.0000 YYYX=             -0.0000 YYYZ=             -0.0000 ZZZX=              0.0000
 ZZZY=             -0.0000 XXYY=            -64.1868 XXZZ=            -64.1510 YYZZ=            -89.4387
 XXYZ=             -0.0000 YYXZ=              0.0000 ZZXY=             -0.0000
 N-N= 2.039460912103D+02 E-N=-9.463305219784D+02  KE= 2.311832312958D+02
 Symmetry AG   KE= 7.450586012250D+01
 Symmetry B1G  KE= 2.214597967126D+00
 Symmetry B2G  KE= 2.213840467645D+00
 Symmetry B3G  KE= 3.770758593613D+01
 Symmetry AU   KE= 7.603116777035D-17
 Symmetry B1U  KE= 7.213169613140D+01
 Symmetry B2U  KE= 4.055147422311D+01
 Symmetry B3U  KE= 1.858176447937D+00
 There are a total of      277668 grid points.
 ElSum from          density=       41.9999812143
 ElSum from atomic densities=       41.9999200221

 Hirshfeld populations at iteration   1 (CX, CA, CB, DipXYZ):
               1          2          3          4          5          6
     1  C    0.000000   3.021713   3.021713  -0.000000   0.047180   0.027295
     2  C    0.000000   3.021713   3.021713  -0.000000   0.047180  -0.027295
     3  C    0.000000   3.021658   3.021658  -0.000000   0.000000   0.054436
     4  H    0.000002   0.478301   0.478301  -0.000000   0.137573   0.079575
     5  C    0.000000   3.021658   3.021658  -0.000000   0.000000  -0.054436
     6  H    0.000002   0.478301   0.478301  -0.000000   0.137573  -0.079575
     7  C    0.000000   3.021713   3.021713  -0.000000  -0.047180  -0.027295
     8  H    0.000002   0.478310   0.478310   0.000000   0.000000  -0.159047
     9  C    0.000000   3.021713   3.021713  -0.000000  -0.047180   0.027295
    10  H    0.000002   0.478301   0.478301  -0.000000  -0.137573  -0.079575
    11  H    0.000002   0.478301   0.478301  -0.000000  -0.137573   0.079575
    12  H    0.000002   0.478310   0.478310  -0.000000   0.000000   0.159047
       Tot   0.000010  20.999991  20.999991  -0.000000   0.000000  -0.000000

 Dip from Atomic Chgs             -0.000000   0.000000  -0.000000
         Total Dipole             -0.000000   0.000000  -0.000000

 Hirshfeld charges, spin densities, dipoles, and CM5 charges using IRadAn=      5:
              Q-H        S-H        Dx         Dy         Dz        Q-CM5   
     1  C   -0.043426   0.000000  -0.000000   0.047180   0.027295  -0.099156
     2  C   -0.043426   0.000000  -0.000000   0.047180  -0.027295  -0.099156
     3  C   -0.043316   0.000000  -0.000000   0.000000   0.054436  -0.099127
     4  H    0.043398   0.000000  -0.000000   0.137573   0.079575   0.099129
     5  C   -0.043316   0.000000  -0.000000   0.000000  -0.054436  -0.099127
     6  H    0.043398   0.000000  -0.000000   0.137573  -0.079575   0.099129
     7  C   -0.043426   0.000000  -0.000000  -0.047180  -0.027295  -0.099156
     8  H    0.043381   0.000000   0.000000   0.000000  -0.159047   0.099191
     9  C   -0.043426   0.000000  -0.000000  -0.047180   0.027295  -0.099156
    10  H    0.043398   0.000000  -0.000000  -0.137573  -0.079575   0.099129
    11  H    0.043398   0.000000  -0.000000  -0.137573   0.079575   0.099129
    12  H    0.043381   0.000000  -0.000000   0.000000   0.159047   0.099191
       Tot   0.000019   0.000000  -0.000000   0.000000  -0.000000   0.000019
 Hirshfeld charges with hydrogens summed into heavy atoms:
              Q-H       Q-CM5   
     1  C   -0.000028  -0.000028
     2  C   -0.000028  -0.000028
     3  C    0.000065   0.000065
     5  C    0.000065   0.000065
     7  C   -0.000028  -0.000028
     9  C   -0.000028  -0.000028
 
 EQQ=  0.00000000000     EQD=  0.00000000000     EDD= 0.732291337939E-02
 EQQ+QD+DD= 0.732291337939E-02
 
 Merz-Kollman atomic radii used.

 **********************************************************************

            Electrostatic Properties Using The SCF Density.

 **********************************************************************

       Atomic Center    1 is at   0.000000  1.205000  0.695000
       Atomic Center    2 is at   0.000000  1.205000 -0.695000
       Atomic Center    3 is at   0.000000  0.000000  1.391000
       Atomic Center    4 is at   0.000000  2.144000  1.238000
       Atomic Center    5 is at   0.000000 -0.000000 -1.391000
       Atomic Center    6 is at   0.000000  2.144000 -1.238000
       Atomic Center    7 is at  -0.000000 -1.205000 -0.695000
       Atomic Center    8 is at  -0.000000  0.000000 -2.475000
       Atomic Center    9 is at  -0.000000 -1.205000  0.695000
       Atomic Center   10 is at  -0.000000 -2.144000 -1.238000
       Atomic Center   11 is at  -0.000000 -2.144000  1.238000
       Atomic Center   12 is at  -0.000000  0.000000  2.475000
     702 points will be used for fitting atomic charges
 Fitting point charges to electrostatic potential
 Charges from ESP fit, RMS=   0.00188 RRMS=   0.19229:
 ESP charges:
               1
     1  C   -0.130915
     2  C   -0.130915
     3  C   -0.106641
     4  H    0.124871
     5  C   -0.106641
     6  H    0.124871
     7  C   -0.130915
     8  H    0.118728
     9  C   -0.130915
    10  H    0.124871
    11  H    0.124871
    12  H    0.118728
 Sum of ESP charges =   0.00000
 ESP charges with hydrogens summed into heavy atoms:
               1
     1  C   -0.006044
     2  C   -0.006044
     3  C    0.012087
     5  C    0.012087
     7  C   -0.006044
     9  C   -0.006044
 Charge=   0.00000 Dipole=    -0.0000    -0.0000    -0.0000 Tot=     0.0000
 -----------------------------------------------------------------

              Electrostatic Properties (Atomic Units)

 -----------------------------------------------------------------
    Center     Electric         -------- Electric Field --------
               Potential          X             Y             Z
 -----------------------------------------------------------------
    1 Atom    -14.772100
    2 Atom    -14.772100
    3 Atom    -14.772019
    4 Atom     -1.105880
    5 Atom    -14.772019
    6 Atom     -1.105880
    7 Atom    -14.772100
    8 Atom     -1.105914
    9 Atom    -14.772100
   10 Atom     -1.105880
   11 Atom     -1.105880
   12 Atom     -1.105914
 -----------------------------------------------------------------
 ******************************Gaussian NBO Version 3.1******************************
             N A T U R A L   A T O M I C   O R B I T A L   A N D
          N A T U R A L   B O N D   O R B I T A L   A N A L Y S I S
 ******************************Gaussian NBO Version 3.1******************************

       /RESON  / : Allow strongly delocalized NBO set
       /BNDIDX / : Print bond indices based on the NAO density matrix

 Analyzing the SCF density

 Job title: BEN                                                             

 Storage needed:     91644 in NPA,    121792 in NBO (6553599184 available)
 GSVD:  LWork=        6084 too small for GESVD, short by       41328 words or       41328 for optimal perf.


 NATURAL POPULATIONS:  Natural atomic orbital occupancies 
                                                          
   NAO  Atom  No  lang   Type(AO)    Occupancy      Energy
 ----------------------------------------------------------
     1    C    1  S      Cor( 1S)     1.99917     -10.14212
     2    C    1  S      Val( 2S)     0.94973      -0.15896
     3    C    1  S      Ryd( 3S)     0.00144       0.89226
     4    C    1  S      Ryd( 4S)     0.00003       3.36509
     5    C    1  S      Ryd( 5S)     0.00000      20.56488
     6    C    1  px     Val( 2p)     0.99764      -0.10747
     7    C    1  px     Ryd( 4p)     0.00105       0.60408
     8    C    1  px     Ryd( 3p)     0.00022       0.34903
     9    C    1  px     Ryd( 5p)     0.00001       2.79122
    10    C    1  py     Val( 2p)     1.14821      -0.06030
    11    C    1  py     Ryd( 4p)     0.00615       1.10151
    12    C    1  py     Ryd( 3p)     0.00022       0.47608
    13    C    1  py     Ryd( 5p)     0.00008       3.19229
    14    C    1  pz     Val( 2p)     1.09517      -0.05503
    15    C    1  pz     Ryd( 4p)     0.00507       0.95219
    16    C    1  pz     Ryd( 3p)     0.00034       0.43786
    17    C    1  pz     Ryd( 5p)     0.00012       3.18042
    18    C    1  dxy    Ryd( 3d)     0.00043       1.71053
    19    C    1  dxz    Ryd( 3d)     0.00050       1.74509
    20    C    1  dyz    Ryd( 3d)     0.00078       2.61115
    21    C    1  dx2y2  Ryd( 3d)     0.00047       2.24854
    22    C    1  dz2    Ryd( 3d)     0.00057       2.56818
 
    23    C    2  S      Cor( 1S)     1.99917     -10.14212
    24    C    2  S      Val( 2S)     0.94973      -0.15896
    25    C    2  S      Ryd( 3S)     0.00144       0.89226
    26    C    2  S      Ryd( 4S)     0.00003       3.36509
    27    C    2  S      Ryd( 5S)     0.00000      20.56488
    28    C    2  px     Val( 2p)     0.99764      -0.10747
    29    C    2  px     Ryd( 4p)     0.00105       0.60408
    30    C    2  px     Ryd( 3p)     0.00022       0.34903
    31    C    2  px     Ryd( 5p)     0.00001       2.79122
    32    C    2  py     Val( 2p)     1.14821      -0.06030
    33    C    2  py     Ryd( 4p)     0.00615       1.10151
    34    C    2  py     Ryd( 3p)     0.00022       0.47608
    35    C    2  py     Ryd( 5p)     0.00008       3.19229
    36    C    2  pz     Val( 2p)     1.09517      -0.05503
    37    C    2  pz     Ryd( 4p)     0.00507       0.95219
    38    C    2  pz     Ryd( 3p)     0.00034       0.43786
    39    C    2  pz     Ryd( 5p)     0.00012       3.18042
    40    C    2  dxy    Ryd( 3d)     0.00043       1.71053
    41    C    2  dxz    Ryd( 3d)     0.00050       1.74509
    42    C    2  dyz    Ryd( 3d)     0.00078       2.61115
    43    C    2  dx2y2  Ryd( 3d)     0.00047       2.24854
    44    C    2  dz2    Ryd( 3d)     0.00057       2.56818
 
    45    C    3  S      Cor( 1S)     1.99917     -10.14235
    46    C    3  S      Val( 2S)     0.95004      -0.15934
    47    C    3  S      Ryd( 3S)     0.00143       0.89215
    48    C    3  S      Ryd( 4S)     0.00003       3.35914
    49    C    3  S      Ryd( 5S)     0.00000      20.57253
    50    C    3  px     Val( 2p)     0.99756      -0.10752
    51    C    3  px     Ryd( 4p)     0.00106       0.60415
    52    C    3  px     Ryd( 3p)     0.00023       0.34883
    53    C    3  px     Ryd( 5p)     0.00001       2.79127
    54    C    3  py     Val( 2p)     1.06765      -0.05221
    55    C    3  py     Ryd( 4p)     0.00453       0.87639
    56    C    3  py     Ryd( 3p)     0.00041       0.41840
    57    C    3  py     Ryd( 5p)     0.00014       3.17348
    58    C    3  pz     Val( 2p)     1.17486      -0.06269
    59    C    3  pz     Ryd( 4p)     0.00667       1.17680
    60    C    3  pz     Ryd( 3p)     0.00016       0.49604
    61    C    3  pz     Ryd( 5p)     0.00006       3.19934
    62    C    3  dxy    Ryd( 3d)     0.00053       1.76091
    63    C    3  dxz    Ryd( 3d)     0.00040       1.69411
    64    C    3  dyz    Ryd( 3d)     0.00061       2.69300
    65    C    3  dx2y2  Ryd( 3d)     0.00044       2.31584
    66    C    3  dz2    Ryd( 3d)     0.00077       2.41626
 
    67    H    4  S      Val( 1S)     0.79124       0.07269
    68    H    4  S      Ryd( 3S)     0.00066       0.75349
    69    H    4  S      Ryd( 4S)     0.00016       2.21817
    70    H    4  S      Ryd( 2S)     0.00000       0.19134
    71    H    4  px     Ryd( 2p)     0.00016       1.68145
    72    H    4  py     Ryd( 2p)     0.00035       2.60912
    73    H    4  pz     Ryd( 2p)     0.00019       2.24285
 
    74    C    5  S      Cor( 1S)     1.99917     -10.14235
    75    C    5  S      Val( 2S)     0.95004      -0.15934
    76    C    5  S      Ryd( 3S)     0.00143       0.89215
    77    C    5  S      Ryd( 4S)     0.00003       3.35914
    78    C    5  S      Ryd( 5S)     0.00000      20.57253
    79    C    5  px     Val( 2p)     0.99756      -0.10752
    80    C    5  px     Ryd( 4p)     0.00106       0.60415
    81    C    5  px     Ryd( 3p)     0.00023       0.34883
    82    C    5  px     Ryd( 5p)     0.00001       2.79127
    83    C    5  py     Val( 2p)     1.06765      -0.05221
    84    C    5  py     Ryd( 4p)     0.00453       0.87639
    85    C    5  py     Ryd( 3p)     0.00041       0.41840
    86    C    5  py     Ryd( 5p)     0.00014       3.17348
    87    C    5  pz     Val( 2p)     1.17486      -0.06269
    88    C    5  pz     Ryd( 4p)     0.00667       1.17680
    89    C    5  pz     Ryd( 3p)     0.00016       0.49604
    90    C    5  pz     Ryd( 5p)     0.00006       3.19934
    91    C    5  dxy    Ryd( 3d)     0.00053       1.76091
    92    C    5  dxz    Ryd( 3d)     0.00040       1.69411
    93    C    5  dyz    Ryd( 3d)     0.00061       2.69300
    94    C    5  dx2y2  Ryd( 3d)     0.00044       2.31584
    95    C    5  dz2    Ryd( 3d)     0.00077       2.41626
 
    96    H    6  S      Val( 1S)     0.79124       0.07269
    97    H    6  S      Ryd( 3S)     0.00066       0.75349
    98    H    6  S      Ryd( 4S)     0.00016       2.21817
    99    H    6  S      Ryd( 2S)     0.00000       0.19134
   100    H    6  px     Ryd( 2p)     0.00016       1.68145
   101    H    6  py     Ryd( 2p)     0.00035       2.60912
   102    H    6  pz     Ryd( 2p)     0.00019       2.24285
 
   103    C    7  S      Cor( 1S)     1.99917     -10.14212
   104    C    7  S      Val( 2S)     0.94973      -0.15896
   105    C    7  S      Ryd( 3S)     0.00144       0.89226
   106    C    7  S      Ryd( 4S)     0.00003       3.36509
   107    C    7  S      Ryd( 5S)     0.00000      20.56488
   108    C    7  px     Val( 2p)     0.99764      -0.10747
   109    C    7  px     Ryd( 4p)     0.00105       0.60408
   110    C    7  px     Ryd( 3p)     0.00022       0.34903
   111    C    7  px     Ryd( 5p)     0.00001       2.79122
   112    C    7  py     Val( 2p)     1.14821      -0.06030
   113    C    7  py     Ryd( 4p)     0.00615       1.10151
   114    C    7  py     Ryd( 3p)     0.00022       0.47608
   115    C    7  py     Ryd( 5p)     0.00008       3.19229
   116    C    7  pz     Val( 2p)     1.09517      -0.05503
   117    C    7  pz     Ryd( 4p)     0.00507       0.95219
   118    C    7  pz     Ryd( 3p)     0.00034       0.43786
   119    C    7  pz     Ryd( 5p)     0.00012       3.18042
   120    C    7  dxy    Ryd( 3d)     0.00043       1.71053
   121    C    7  dxz    Ryd( 3d)     0.00050       1.74509
   122    C    7  dyz    Ryd( 3d)     0.00078       2.61115
   123    C    7  dx2y2  Ryd( 3d)     0.00047       2.24854
   124    C    7  dz2    Ryd( 3d)     0.00057       2.56818
 
   125    H    8  S      Val( 1S)     0.79135       0.07313
   126    H    8  S      Ryd( 3S)     0.00066       0.75415
   127    H    8  S      Ryd( 4S)     0.00016       2.21701
   128    H    8  S      Ryd( 2S)     0.00000       0.19118
   129    H    8  px     Ryd( 2p)     0.00016       1.68175
   130    H    8  py     Ryd( 2p)     0.00011       2.05885
   131    H    8  pz     Ryd( 2p)     0.00044       2.79450
 
   132    C    9  S      Cor( 1S)     1.99917     -10.14212
   133    C    9  S      Val( 2S)     0.94973      -0.15896
   134    C    9  S      Ryd( 3S)     0.00144       0.89226
   135    C    9  S      Ryd( 4S)     0.00003       3.36509
   136    C    9  S      Ryd( 5S)     0.00000      20.56488
   137    C    9  px     Val( 2p)     0.99764      -0.10747
   138    C    9  px     Ryd( 4p)     0.00105       0.60408
   139    C    9  px     Ryd( 3p)     0.00022       0.34903
   140    C    9  px     Ryd( 5p)     0.00001       2.79122
   141    C    9  py     Val( 2p)     1.14821      -0.06030
   142    C    9  py     Ryd( 4p)     0.00615       1.10151
   143    C    9  py     Ryd( 3p)     0.00022       0.47608
   144    C    9  py     Ryd( 5p)     0.00008       3.19229
   145    C    9  pz     Val( 2p)     1.09517      -0.05503
   146    C    9  pz     Ryd( 4p)     0.00507       0.95219
   147    C    9  pz     Ryd( 3p)     0.00034       0.43786
   148    C    9  pz     Ryd( 5p)     0.00012       3.18042
   149    C    9  dxy    Ryd( 3d)     0.00043       1.71053
   150    C    9  dxz    Ryd( 3d)     0.00050       1.74509
   151    C    9  dyz    Ryd( 3d)     0.00078       2.61115
   152    C    9  dx2y2  Ryd( 3d)     0.00047       2.24854
   153    C    9  dz2    Ryd( 3d)     0.00057       2.56818
 
   154    H   10  S      Val( 1S)     0.79124       0.07269
   155    H   10  S      Ryd( 3S)     0.00066       0.75349
   156    H   10  S      Ryd( 4S)     0.00016       2.21817
   157    H   10  S      Ryd( 2S)     0.00000       0.19134
   158    H   10  px     Ryd( 2p)     0.00016       1.68145
   159    H   10  py     Ryd( 2p)     0.00035       2.60912
   160    H   10  pz     Ryd( 2p)     0.00019       2.24285
 
   161    H   11  S      Val( 1S)     0.79124       0.07269
   162    H   11  S      Ryd( 3S)     0.00066       0.75349
   163    H   11  S      Ryd( 4S)     0.00016       2.21817
   164    H   11  S      Ryd( 2S)     0.00000       0.19134
   165    H   11  px     Ryd( 2p)     0.00016       1.68145
   166    H   11  py     Ryd( 2p)     0.00035       2.60912
   167    H   11  pz     Ryd( 2p)     0.00019       2.24285
 
   168    H   12  S      Val( 1S)     0.79135       0.07313
   169    H   12  S      Ryd( 3S)     0.00066       0.75415
   170    H   12  S      Ryd( 4S)     0.00016       2.21701
   171    H   12  S      Ryd( 2S)     0.00000       0.19118
   172    H   12  px     Ryd( 2p)     0.00016       1.68175
   173    H   12  py     Ryd( 2p)     0.00011       2.05885
   174    H   12  pz     Ryd( 2p)     0.00044       2.79450

 WARNING:  Population inversion found on atom  C    1
           Population inversion found on atom  C    2
           Population inversion found on atom  C    3
           Population inversion found on atom  H    4
           Population inversion found on atom  C    5
           Population inversion found on atom  H    6
           Population inversion found on atom  C    7
           Population inversion found on atom  H    8
           Population inversion found on atom  C    9
           Population inversion found on atom  H   10
           Population inversion found on atom  H   11
           Population inversion found on atom  H   12


 Summary of Natural Population Analysis:                  
                                                          
                                       Natural Population 
                Natural  -----------------------------------------------
    Atom  No    Charge         Core      Valence    Rydberg      Total
 -----------------------------------------------------------------------
      C    1   -0.20741      1.99917     4.19075    0.01749     6.20741
      C    2   -0.20741      1.99917     4.19075    0.01749     6.20741
      C    3   -0.20675      1.99917     4.19011    0.01747     6.20675
      H    4    0.20722      0.00000     0.79124    0.00153     0.79278
      C    5   -0.20675      1.99917     4.19011    0.01747     6.20675
      H    6    0.20722      0.00000     0.79124    0.00153     0.79278
      C    7   -0.20741      1.99917     4.19075    0.01749     6.20741
      H    8    0.20712      0.00000     0.79135    0.00153     0.79288
      C    9   -0.20741      1.99917     4.19075    0.01749     6.20741
      H   10    0.20722      0.00000     0.79124    0.00153     0.79278
      H   11    0.20722      0.00000     0.79124    0.00153     0.79278
      H   12    0.20712      0.00000     0.79135    0.00153     0.79288
 =======================================================================
   * Total *    0.00000     11.99502    29.89089    0.11408    42.00000

                                 Natural Population      
 --------------------------------------------------------
   Core                      11.99502 ( 99.9585% of  12)
   Valence                   29.89089 ( 99.6363% of  30)
   Natural Minimal Basis     41.88592 ( 99.7284% of  42)
   Natural Rydberg Basis      0.11408 (  0.2716% of  42)
 --------------------------------------------------------

    Atom  No          Natural Electron Configuration
 ----------------------------------------------------------------------------
      C    1      [core]2S( 0.95)2p( 3.24)4p( 0.01)
      C    2      [core]2S( 0.95)2p( 3.24)4p( 0.01)
      C    3      [core]2S( 0.95)2p( 3.24)4p( 0.01)
      H    4            1S( 0.79)
      C    5      [core]2S( 0.95)2p( 3.24)4p( 0.01)
      H    6            1S( 0.79)
      C    7      [core]2S( 0.95)2p( 3.24)4p( 0.01)
      H    8            1S( 0.79)
      C    9      [core]2S( 0.95)2p( 3.24)4p( 0.01)
      H   10            1S( 0.79)
      H   11            1S( 0.79)
      H   12            1S( 0.79)


 Wiberg bond index matrix in the NAO basis:                                    

     Atom    1       2       3       4       5       6       7       8       9
     ---- ------  ------  ------  ------  ------  ------  ------  ------  ------
   1.  C  0.0000  1.4373  1.4363  0.9263  0.0126  0.0036  0.1137  0.0085  0.0125
   2.  C  1.4373  0.0000  0.0126  0.0036  1.4363  0.9263  0.0125  0.0036  0.1137
   3.  C  1.4363  0.0126  0.0000  0.0035  0.1144  0.0086  0.0126  0.0004  1.4363
   4.  H  0.9263  0.0036  0.0035  0.0000  0.0086  0.0034  0.0004  0.0003  0.0085
   5.  C  0.0126  1.4363  0.1144  0.0086  0.0000  0.0035  1.4363  0.9266  0.0126
   6.  H  0.0036  0.9263  0.0086  0.0034  0.0035  0.0000  0.0085  0.0034  0.0004
   7.  C  0.1137  0.0125  0.0126  0.0004  1.4363  0.0085  0.0000  0.0036  1.4373
   8.  H  0.0085  0.0036  0.0004  0.0003  0.9266  0.0034  0.0036  0.0000  0.0085
   9.  C  0.0125  0.1137  1.4363  0.0085  0.0126  0.0004  1.4373  0.0085  0.0000
  10.  H  0.0004  0.0085  0.0086  0.0005  0.0035  0.0003  0.9263  0.0034  0.0036
  11.  H  0.0085  0.0004  0.0035  0.0003  0.0086  0.0005  0.0036  0.0003  0.9263
  12.  H  0.0036  0.0085  0.9266  0.0034  0.0004  0.0003  0.0085  0.0005  0.0036

     Atom   10      11      12
     ---- ------  ------  ------
   1.  C  0.0004  0.0085  0.0036
   2.  C  0.0085  0.0004  0.0085
   3.  C  0.0086  0.0035  0.9266
   4.  H  0.0005  0.0003  0.0034
   5.  C  0.0035  0.0086  0.0004
   6.  H  0.0003  0.0005  0.0003
   7.  C  0.9263  0.0036  0.0085
   8.  H  0.0034  0.0003  0.0005
   9.  C  0.0036  0.9263  0.0036
  10.  H  0.0000  0.0034  0.0003
  11.  H  0.0034  0.0000  0.0034
  12.  H  0.0003  0.0034  0.0000


 Wiberg bond index, Totals by atom:                                            

     Atom    1
     ---- ------
   1.  C  3.9633
   2.  C  3.9633
   3.  C  3.9634
   4.  H  0.9589
   5.  C  3.9634
   6.  H  0.9589
   7.  C  3.9633
   8.  H  0.9589
   9.  C  3.9633
  10.  H  0.9589
  11.  H  0.9589
  12.  H  0.9589


 Atom-atom overlap-weighted NAO bond order:                                    

     Atom    1       2       3       4       5       6       7       8       9
     ---- ------  ------  ------  ------  ------  ------  ------  ------  ------
   1.  C  0.0000  1.1674  1.1658  0.8012  0.0177  0.0199 -0.0455  0.0018  0.0175
   2.  C  1.1674  0.0000  0.0177  0.0199  1.1658  0.8012  0.0175  0.0198 -0.0455
   3.  C  1.1658  0.0177  0.0000  0.0198 -0.0457  0.0018  0.0177  0.0013  1.1658
   4.  H  0.8012  0.0199  0.0198  0.0000  0.0018 -0.0019  0.0013  0.0002  0.0018
   5.  C  0.0177  1.1658 -0.0457  0.0018  0.0000  0.0198  1.1658  0.8015  0.0177
   6.  H  0.0199  0.8012  0.0018 -0.0019  0.0198  0.0000  0.0018 -0.0019  0.0013
   7.  C -0.0455  0.0175  0.0177  0.0013  1.1658  0.0018  0.0000  0.0198  1.1674
   8.  H  0.0018  0.0198  0.0013  0.0002  0.8015 -0.0019  0.0198  0.0000  0.0018
   9.  C  0.0175 -0.0455  1.1658  0.0018  0.0177  0.0013  1.1674  0.0018  0.0000
  10.  H  0.0013  0.0018  0.0018 -0.0001  0.0198  0.0002  0.8012 -0.0019  0.0199
  11.  H  0.0018  0.0013  0.0198  0.0002  0.0018 -0.0001  0.0199  0.0002  0.8012
  12.  H  0.0198  0.0018  0.8015 -0.0019  0.0013  0.0002  0.0018 -0.0001  0.0198

     Atom   10      11      12
     ---- ------  ------  ------
   1.  C  0.0013  0.0018  0.0198
   2.  C  0.0018  0.0013  0.0018
   3.  C  0.0018  0.0198  0.8015
   4.  H -0.0001  0.0002 -0.0019
   5.  C  0.0198  0.0018  0.0013
   6.  H  0.0002 -0.0001  0.0002
   7.  C  0.8012  0.0199  0.0018
   8.  H -0.0019  0.0002 -0.0001
   9.  C  0.0199  0.8012  0.0198
  10.  H  0.0000 -0.0019  0.0002
  11.  H -0.0019  0.0000 -0.0019
  12.  H  0.0002 -0.0019  0.0000


 Atom-atom overlap-weighted NAO bond order, Totals by atom:                    

     Atom    1
     ---- ------
   1.  C  3.1688
   2.  C  3.1688
   3.  C  3.1673
   4.  H  0.8422
   5.  C  3.1673
   6.  H  0.8422
   7.  C  3.1688
   8.  H  0.8424
   9.  C  3.1688
  10.  H  0.8422
  11.  H  0.8422
  12.  H  0.8424


 MO bond order:                                                                

     Atom    1       2       3       4       5       6       7       8       9
     ---- ------  ------  ------  ------  ------  ------  ------  ------  ------
   1.  C  0.0000  0.5884  1.0478  1.6361  0.1180 -0.0657 -0.3260 -0.0367  0.2008
   2.  C  0.5884  0.0000  0.2571  0.0725 -0.0216  0.8160 -0.0668 -0.0545 -0.3859
   3.  C  1.0478  0.2571  0.0000  0.0128 -0.3555  0.0425  0.0326  0.0028  0.0383
   4.  H  1.6361  0.0725  0.0128  0.0000  0.1238 -0.0528  0.0270 -0.0105  0.1269
   5.  C  0.1180 -0.0216 -0.3555  0.1238  0.0000  0.0912  0.9403 -0.2742 -0.1111
   6.  H -0.0657  0.8160  0.0425 -0.0528  0.0912  0.0000  0.0820 -0.0556  0.0183
   7.  C -0.3260 -0.0668  0.0326  0.0270  0.9403  0.0820  0.0000  0.0804  0.4911
   8.  H -0.0367 -0.0545  0.0028 -0.0105 -0.2742 -0.0556  0.0804  0.0000 -0.0061
   9.  C  0.2008 -0.3859  0.0383  0.1269 -0.1111  0.0183  0.4911 -0.0061  0.0000
  10.  H -0.0018 -0.0378 -0.0598  0.0117  0.0203 -0.0125 -0.6212 -0.0577 -0.0129
  11.  H  0.0023  0.0102 -0.0956 -0.0096  0.0288  0.0117  0.1002 -0.0132  0.2115
  12.  H -0.0201  0.0960  1.3763 -0.0517  0.0240 -0.0092  0.1144  0.0115  0.1022

     Atom   10      11      12
     ---- ------  ------  ------
   1.  C -0.0018  0.0023 -0.0201
   2.  C -0.0378  0.0102  0.0960
   3.  C -0.0598 -0.0956  1.3763
   4.  H  0.0117 -0.0096 -0.0517
   5.  C  0.0203  0.0288  0.0240
   6.  H -0.0125  0.0117 -0.0092
   7.  C -0.6212  0.1002  0.1144
   8.  H -0.0577 -0.0132  0.0115
   9.  C -0.0129  0.2115  0.1022
  10.  H  0.0000 -0.0571 -0.0115
  11.  H -0.0571  0.0000 -0.0540
  12.  H -0.0115 -0.0540  0.0000


 MO atomic valencies:                                                          

     Atom    1
     ---- ------
   1.  C  3.1431
   2.  C  1.2737
   3.  C  2.2993
   4.  H  1.8861
   5.  C  0.5840
   6.  H  0.8658
   7.  C  0.8540
   8.  H -0.4137
   9.  C  0.6730
  10.  H -0.8404
  11.  H  0.1353
  12.  H  1.5780


 NATURAL BOND ORBITAL ANALYSIS:

                       Occupancies       Lewis Structure    Low   High
           Occ.    -------------------  -----------------   occ   occ
  Cycle   Thresh.   Lewis   Non-Lewis     CR  BD  3C  LP    (L)   (NL)   Dev
 =============================================================================
   1(1)    1.90    38.75571   3.24429      6  12   0   3     3      3    0.44
   2(2)    1.90    38.75571   3.24429      6  12   0   3     3      3    0.44
   3(1)    1.80    38.75571   3.24429      6  12   0   3     3      3    0.44
   4(2)    1.80    38.75571   3.24429      6  12   0   3     3      3    0.44
   5(1)    1.70    38.75571   3.24429      6  12   0   3     3      3    0.44
   6(2)    1.70    38.75571   3.24429      6  12   0   3     3      3    0.44
   7(1)    1.60    40.08818   1.91182      6  14   0   1     1      3    0.44
   8(2)    1.60    40.75328   1.24672      6  15   0   0     0      3    0.44
   9(3)    1.60    40.08818   1.91182      6  14   0   1     1      3    0.44
  10(4)    1.60    40.75328   1.24672      6  15   0   0     0      3    0.44
  11(5)    1.60    40.08818   1.91182      6  14   0   1     1      3    0.44
  12(6)    1.60    40.75328   1.24672      6  15   0   0     0      3    0.44
  13(7)    1.60    40.08818   1.91182      6  14   0   1     1      3    0.44
  14(8)    1.60    40.75328   1.24672      6  15   0   0     0      3    0.44
  15(9)    1.60    40.08818   1.91182      6  14   0   1     1      3    0.44
  16(1)    1.50    40.75328   1.24672      6  15   0   0     0      3    0.44
  17(2)    1.50    40.08818   1.91182      6  14   0   1     1      3    0.44
  18(3)    1.50    40.75328   1.24672      6  15   0   0     0      3    0.44
  19(4)    1.50    40.08818   1.91182      6  14   0   1     1      3    0.44
  20(5)    1.50    40.75328   1.24672      6  15   0   0     0      3    0.44
  21(6)    1.50    40.08818   1.91182      6  14   0   1     1      3    0.44
  22(7)    1.50    40.75328   1.24672      6  15   0   0     0      3    0.44
  23(8)    1.50    40.08818   1.91182      6  14   0   1     1      3    0.44
  24(9)    1.50    40.75328   1.24672      6  15   0   0     0      3    0.44
  25(1)    1.60    40.75328   1.24672      6  15   0   0     0      3    0.44
 -----------------------------------------------------------------------------

 Structure accepted: RESONANCE keyword permits strongly delocalized structure

 --------------------------------------------------------
   Core                     11.99504 ( 99.959% of  12)
   Valence Lewis            28.75824 ( 95.861% of  30)
  ==================       ============================
   Total Lewis              40.75328 ( 97.032% of  42)
  -----------------------------------------------------
   Valence non-Lewis         1.17719 (  2.803% of  42)
   Rydberg non-Lewis         0.06953 (  0.166% of  42)
  ==================       ============================
   Total non-Lewis           1.24672 (  2.968% of  42)
 --------------------------------------------------------


       (Occupancy)   Bond orbital/ Coefficients/ Hybrids
 ---------------------------------------------------------------------------------
     1. (1.97998) BD ( 1) C   1 - C   2  
                ( 50.00%)   0.7071* C   1 s( 35.82%)p 1.79( 64.14%)d 0.00(  0.04%)
                                            0.0000  0.5984 -0.0140 -0.0006 -0.0002
                                            0.0000  0.0000  0.0000  0.0000  0.0274
                                           -0.0390  0.0037  0.0000 -0.7991  0.0204
                                            0.0101 -0.0010  0.0000  0.0000  0.0020
                                           -0.0019  0.0199
                ( 50.00%)   0.7071* C   2 s( 35.82%)p 1.79( 64.14%)d 0.00(  0.04%)
                                            0.0000  0.5984 -0.0140 -0.0006 -0.0002
                                            0.0000  0.0000  0.0000  0.0000  0.0274
                                           -0.0390  0.0037  0.0000  0.7991 -0.0204
                                           -0.0101  0.0010  0.0000  0.0000 -0.0020
                                           -0.0019  0.0199
     2. (1.66487) BD ( 2) C   1 - C   2  
                ( 50.00%)   0.7071* C   1 s(  0.00%)p 1.00( 99.95%)d 0.00(  0.05%)
                                            0.0000  0.0000  0.0000  0.0000  0.0000
                                            0.9995  0.0170  0.0134 -0.0021  0.0000
                                            0.0000  0.0000  0.0000  0.0000  0.0000
                                            0.0000  0.0000 -0.0119 -0.0183  0.0000
                                            0.0000  0.0000
                ( 50.00%)   0.7071* C   2 s(  0.00%)p 1.00( 99.95%)d 0.00(  0.05%)
                                            0.0000  0.0000  0.0000  0.0000  0.0000
                                            0.9995  0.0170  0.0134 -0.0021  0.0000
                                            0.0000  0.0000  0.0000  0.0000  0.0000
                                            0.0000  0.0000 -0.0119  0.0183  0.0000
                                            0.0000  0.0000
     3. (1.97993) BD ( 1) C   1 - C   3  
                ( 50.01%)   0.7072* C   1 s( 35.75%)p 1.80( 64.21%)d 0.00(  0.04%)
                                            0.0000  0.5978 -0.0138 -0.0006 -0.0002
                                            0.0000  0.0000  0.0000  0.0000 -0.6787
                                           -0.0019  0.0106 -0.0008  0.4235 -0.0439
                                           -0.0019  0.0005  0.0000  0.0000 -0.0131
                                           -0.0149 -0.0028
                ( 49.99%)   0.7071* C   3 s( 35.76%)p 1.80( 64.20%)d 0.00(  0.04%)
                                            0.0000  0.5979 -0.0138 -0.0006 -0.0002
                                            0.0000  0.0000  0.0000  0.0000  0.7059
                                           -0.0371 -0.0069  0.0008 -0.3763 -0.0236
                                            0.0083 -0.0004  0.0000  0.0000 -0.0151
                                           -0.0132  0.0002
     4. (1.98083) BD ( 1) C   1 - H   4  
                ( 60.45%)   0.7775* C   1 s( 28.44%)p 2.51( 71.52%)d 0.00(  0.04%)
                                           -0.0004  0.5328  0.0236  0.0011  0.0004
                                            0.0000  0.0000  0.0000  0.0000  0.7320
                                            0.0163  0.0021  0.0016  0.4230  0.0094
                                            0.0012  0.0009  0.0000  0.0000  0.0166
                                           -0.0123 -0.0040
                ( 39.55%)   0.6289* H   4 s( 99.95%)p 0.00(  0.05%)
                                            0.9998  0.0013  0.0009  0.0001  0.0000
                                           -0.0185 -0.0107
     5. (1.97993) BD ( 1) C   2 - C   5  
                ( 50.01%)   0.7072* C   2 s( 35.75%)p 1.80( 64.21%)d 0.00(  0.04%)
                                            0.0000  0.5978 -0.0138 -0.0006 -0.0002
                                            0.0000  0.0000  0.0000  0.0000 -0.6787
                                           -0.0019  0.0106 -0.0008 -0.4235  0.0439
                                            0.0019 -0.0005  0.0000  0.0000  0.0131
                                           -0.0149 -0.0028
                ( 49.99%)   0.7071* C   5 s( 35.76%)p 1.80( 64.20%)d 0.00(  0.04%)
                                            0.0000  0.5979 -0.0138 -0.0006 -0.0002
                                            0.0000  0.0000  0.0000  0.0000  0.7059
                                           -0.0371 -0.0069  0.0008  0.3763  0.0236
                                           -0.0083  0.0004  0.0000  0.0000  0.0151
                                           -0.0132  0.0002
     6. (1.98083) BD ( 1) C   2 - H   6  
                ( 60.45%)   0.7775* C   2 s( 28.44%)p 2.51( 71.52%)d 0.00(  0.04%)
                                           -0.0004  0.5328  0.0236  0.0011  0.0004
                                            0.0000  0.0000  0.0000  0.0000  0.7320
                                            0.0163  0.0021  0.0016 -0.4230 -0.0094
                                           -0.0012 -0.0009  0.0000  0.0000 -0.0166
                                           -0.0123 -0.0040
                ( 39.55%)   0.6289* H   6 s( 99.95%)p 0.00(  0.05%)
                                            0.9998  0.0013  0.0009  0.0001  0.0000
                                           -0.0185  0.0107
     7. (1.97993) BD ( 1) C   3 - C   9  
                ( 49.99%)   0.7071* C   3 s( 35.76%)p 1.80( 64.20%)d 0.00(  0.04%)
                                            0.0000  0.5979 -0.0138 -0.0006 -0.0002
                                            0.0000  0.0000  0.0000  0.0000 -0.7059
                                            0.0371  0.0069 -0.0008 -0.3763 -0.0236
                                            0.0083 -0.0004  0.0000  0.0000  0.0151
                                           -0.0132  0.0002
                ( 50.01%)   0.7072* C   9 s( 35.75%)p 1.80( 64.21%)d 0.00(  0.04%)
                                            0.0000  0.5978 -0.0138 -0.0006 -0.0002
                                            0.0000  0.0000  0.0000  0.0000  0.6787
                                            0.0019 -0.0106  0.0008  0.4235 -0.0439
                                           -0.0019  0.0005  0.0000  0.0000  0.0131
                                           -0.0149 -0.0028
     8. (1.66425) BD ( 2) C   3 - C   9  
                ( 50.00%)   0.7071* C   3 s(  0.00%)p 1.00( 99.95%)d 0.00(  0.05%)
                                            0.0000  0.0000  0.0000  0.0000  0.0000
                                            0.9995  0.0172  0.0134 -0.0021  0.0000
                                            0.0000  0.0000  0.0000  0.0000  0.0000
                                            0.0000  0.0000 -0.0098 -0.0194  0.0000
                                            0.0000  0.0000
                ( 50.00%)   0.7071* C   9 s(  0.00%)p 1.00( 99.95%)d 0.00(  0.05%)
                                            0.0000  0.0000  0.0000  0.0000  0.0000
                                            0.9995  0.0171  0.0134 -0.0021  0.0000
                                            0.0000  0.0000  0.0000  0.0000  0.0000
                                            0.0000  0.0000  0.0217 -0.0013  0.0000
                                            0.0000  0.0000
     9. (1.98093) BD ( 1) C   3 - H  12  
                ( 60.44%)   0.7774* C   3 s( 28.49%)p 2.51( 71.47%)d 0.00(  0.04%)
                                           -0.0004  0.5332  0.0235  0.0011  0.0004
                                            0.0000  0.0000  0.0000  0.0000  0.0000
                                           -0.0000 -0.0000 -0.0000  0.8452  0.0186
                                            0.0024  0.0018  0.0000  0.0000  0.0000
                                            0.0021  0.0209
                ( 39.56%)   0.6290* H  12 s( 99.95%)p 0.00(  0.05%)
                                            0.9998  0.0013  0.0009  0.0001  0.0000
                                            0.0000 -0.0214
    10. (1.97993) BD ( 1) C   5 - C   7  
                ( 49.99%)   0.7071* C   5 s( 35.76%)p 1.80( 64.20%)d 0.00(  0.04%)
                                            0.0000  0.5979 -0.0138 -0.0006 -0.0002
                                            0.0000  0.0000  0.0000  0.0000 -0.7059
                                            0.0371  0.0069 -0.0008  0.3763  0.0236
                                           -0.0083  0.0004  0.0000  0.0000 -0.0151
                                           -0.0132  0.0002
                ( 50.01%)   0.7072* C   7 s( 35.75%)p 1.80( 64.21%)d 0.00(  0.04%)
                                            0.0000  0.5978 -0.0138 -0.0006 -0.0002
                                            0.0000  0.0000  0.0000  0.0000  0.6787
                                            0.0019 -0.0106  0.0008 -0.4235  0.0439
                                            0.0019 -0.0005  0.0000  0.0000 -0.0131
                                           -0.0149 -0.0028
    11. (1.66425) BD ( 2) C   5 - C   7  
                ( 50.00%)   0.7071* C   5 s(  0.00%)p 1.00( 99.95%)d 0.00(  0.05%)
                                            0.0000  0.0000  0.0000  0.0000  0.0000
                                            0.9995  0.0172  0.0134 -0.0021  0.0000
                                            0.0000  0.0000  0.0000  0.0000  0.0000
                                            0.0000  0.0000 -0.0098  0.0194  0.0000
                                            0.0000  0.0000
                ( 50.00%)   0.7071* C   7 s(  0.00%)p 1.00( 99.95%)d 0.00(  0.05%)
                                            0.0000  0.0000  0.0000  0.0000  0.0000
                                            0.9995  0.0171  0.0134 -0.0021  0.0000
                                            0.0000  0.0000  0.0000  0.0000  0.0000
                                            0.0000  0.0000  0.0217  0.0013  0.0000
                                            0.0000  0.0000
    12. (1.98093) BD ( 1) C   5 - H   8  
                ( 60.44%)   0.7774* C   5 s( 28.49%)p 2.51( 71.47%)d 0.00(  0.04%)
                                            0.0004 -0.5332 -0.0235 -0.0011 -0.0004
                                            0.0000  0.0000  0.0000  0.0000 -0.0000
                                            0.0000  0.0000 -0.0000  0.8452  0.0186
                                            0.0024  0.0018  0.0000  0.0000 -0.0000
                                           -0.0021 -0.0209
                ( 39.56%)   0.6290* H   8 s( 99.95%)p 0.00(  0.05%)
                                           -0.9998 -0.0013 -0.0009 -0.0001  0.0000
                                           -0.0000 -0.0214
    13. (1.97998) BD ( 1) C   7 - C   9  
                ( 50.00%)   0.7071* C   7 s( 35.82%)p 1.79( 64.14%)d 0.00(  0.04%)
                                            0.0000  0.5984 -0.0140 -0.0006 -0.0002
                                            0.0000  0.0000  0.0000  0.0000 -0.0274
                                            0.0390 -0.0037 -0.0000  0.7991 -0.0204
                                           -0.0101  0.0010  0.0000  0.0000  0.0020
                                           -0.0019  0.0199
                ( 50.00%)   0.7071* C   9 s( 35.82%)p 1.79( 64.14%)d 0.00(  0.04%)
                                            0.0000  0.5984 -0.0140 -0.0006 -0.0002
                                            0.0000  0.0000  0.0000  0.0000 -0.0274
                                            0.0390 -0.0037 -0.0000 -0.7991  0.0204
                                            0.0101 -0.0010  0.0000  0.0000 -0.0020
                                           -0.0019  0.0199
    14. (1.98083) BD ( 1) C   7 - H  10  
                ( 60.45%)   0.7775* C   7 s( 28.44%)p 2.51( 71.52%)d 0.00(  0.04%)
                                            0.0004 -0.5328 -0.0236 -0.0011 -0.0004
                                            0.0000  0.0000  0.0000  0.0000  0.7320
                                            0.0163  0.0021  0.0016  0.4230  0.0094
                                            0.0012  0.0009  0.0000  0.0000 -0.0166
                                            0.0123  0.0040
                ( 39.55%)   0.6289* H  10 s( 99.95%)p 0.00(  0.05%)
                                           -0.9998 -0.0013 -0.0009 -0.0001  0.0000
                                           -0.0185 -0.0107
    15. (1.98083) BD ( 1) C   9 - H  11  
                ( 60.45%)   0.7775* C   9 s( 28.44%)p 2.51( 71.52%)d 0.00(  0.04%)
                                            0.0004 -0.5328 -0.0236 -0.0011 -0.0004
                                            0.0000  0.0000  0.0000  0.0000  0.7320
                                            0.0163  0.0021  0.0016 -0.4230 -0.0094
                                           -0.0012 -0.0009  0.0000  0.0000  0.0166
                                            0.0123  0.0040
                ( 39.55%)   0.6289* H  11 s( 99.95%)p 0.00(  0.05%)
                                           -0.9998 -0.0013 -0.0009 -0.0001  0.0000
                                           -0.0185  0.0107
    16. (1.99917) CR ( 1) C   1           s(100.00%)p 0.00(  0.00%)
                                            1.0000  0.0002  0.0000  0.0000  0.0000
                                            0.0000  0.0000  0.0000  0.0000  0.0003
                                            0.0000  0.0000  0.0000  0.0002  0.0000
                                            0.0000  0.0000  0.0000  0.0000  0.0000
                                           -0.0000 -0.0000
    17. (1.99917) CR ( 1) C   2           s(100.00%)p 0.00(  0.00%)
                                            1.0000  0.0002  0.0000  0.0000  0.0000
                                            0.0000  0.0000  0.0000  0.0000  0.0003
                                            0.0000  0.0000  0.0000 -0.0002 -0.0000
                                           -0.0000 -0.0000  0.0000  0.0000 -0.0000
                                           -0.0000 -0.0000
    18. (1.99917) CR ( 1) C   3           s(100.00%)p 0.00(  0.00%)
                                            1.0000  0.0002  0.0000  0.0000  0.0000
                                            0.0000  0.0000  0.0000  0.0000 -0.0000
                                            0.0000  0.0000  0.0000  0.0004  0.0000
                                            0.0000  0.0000  0.0000  0.0000 -0.0000
                                            0.0000  0.0000
    19. (1.99917) CR ( 1) C   5           s(100.00%)p 0.00(  0.00%)
                                            1.0000  0.0002  0.0000  0.0000  0.0000
                                            0.0000  0.0000  0.0000  0.0000 -0.0000
                                            0.0000  0.0000 -0.0000 -0.0004 -0.0000
                                           -0.0000 -0.0000  0.0000  0.0000 -0.0000
                                            0.0000  0.0000
    20. (1.99917) CR ( 1) C   7           s(100.00%)p 0.00(  0.00%)
                                            1.0000  0.0002  0.0000  0.0000  0.0000
                                            0.0000  0.0000  0.0000  0.0000 -0.0003
                                           -0.0000 -0.0000 -0.0000 -0.0002 -0.0000
                                           -0.0000 -0.0000  0.0000  0.0000  0.0000
                                           -0.0000 -0.0000
    21. (1.99917) CR ( 1) C   9           s(100.00%)p 0.00(  0.00%)
                                            1.0000  0.0002  0.0000  0.0000  0.0000
                                            0.0000  0.0000  0.0000  0.0000 -0.0003
                                           -0.0000 -0.0000 -0.0000  0.0002  0.0000
                                            0.0000  0.0000  0.0000  0.0000 -0.0000
                                           -0.0000 -0.0000
    22. (0.00599) RY*( 1) C   1           s(  0.84%)p99.99( 93.94%)d 6.26(  5.23%)
                                            0.0000 -0.0166  0.0861 -0.0257  0.0005
                                           -0.0000 -0.0000 -0.0000 -0.0000  0.0303
                                           -0.8359  0.0396 -0.0548  0.0175 -0.4830
                                            0.0226 -0.0318 -0.0000 -0.0000 -0.1964
                                            0.0827  0.0829
    23. (0.00221) RY*( 2) C   1           s(  0.00%)p 1.00( 99.01%)d 0.01(  0.99%)
                                           -0.0000  0.0001  0.0018 -0.0003 -0.0002
                                           -0.0000 -0.0000 -0.0000 -0.0000  0.0229
                                            0.4746 -0.1040 -0.1054 -0.0398 -0.8214
                                            0.1802  0.1833 -0.0000 -0.0000  0.0500
                                            0.0431  0.0746
    24. (0.00076) RY*( 3) C   1           s(  0.00%)p 1.00( 82.15%)d 0.22( 17.85%)
                                            0.0000  0.0000  0.0000  0.0000  0.0000
                                           -0.0085  0.8818  0.1790  0.1085  0.0000
                                            0.0000  0.0000  0.0000  0.0000  0.0000
                                            0.0000  0.0000  0.1006  0.4104  0.0000
                                            0.0000  0.0000
    25. (0.00062) RY*( 4) C   1           s(  0.00%)p 1.00(  8.41%)d10.88( 91.59%)
                                            0.0000  0.0000  0.0000  0.0000  0.0000
                                            0.0130 -0.2819 -0.0572 -0.0355  0.0000
                                            0.0000  0.0000  0.0000  0.0000  0.0000
                                            0.0000  0.0000 -0.5586  0.7771  0.0000
                                            0.0000  0.0000
    26. (0.00037) RY*( 5) C   1           s( 93.99%)p 0.05(  4.64%)d 0.01(  1.37%)
                                           -0.0000  0.0046  0.9650 -0.0780 -0.0515
                                            0.0000  0.0000  0.0000  0.0000 -0.0265
                                            0.0808 -0.0066  0.1645 -0.0156  0.0476
                                           -0.0102  0.0973  0.0000  0.0000 -0.0831
                                           -0.0380  0.0730
    27. (0.00029) RY*( 6) C   1           s(  0.00%)p 1.00( 81.92%)d 0.22( 18.07%)
                                            0.0000  0.0000  0.0065 -0.0012 -0.0004
                                            0.0000  0.0000  0.0000  0.0000 -0.0131
                                           -0.0781 -0.4170  0.1563  0.0223  0.1361
                                            0.7231 -0.2698  0.0000  0.0000  0.2122
                                            0.1842  0.3190
    28. (0.00010) RY*( 7) C   1           s( 23.40%)p 0.61( 14.21%)d 2.67( 62.39%)
    29. (0.00007) RY*( 8) C   1           s(  0.00%)p 1.00( 34.91%)d 1.86( 65.09%)
    30. (0.00004) RY*( 9) C   1           s(  0.50%)p98.58( 48.84%)d99.99( 50.66%)
    31. (0.00000) RY*(10) C   1           s( 75.70%)p 0.02(  1.51%)d 0.30( 22.79%)
    32. (0.00000) RY*(11) C   1           s(  0.00%)p 1.00( 99.72%)d 0.00(  0.28%)
    33. (0.00000) RY*(12) C   1           s(  2.37%)p35.15( 83.27%)d 6.06( 14.37%)
    34. (0.00000) RY*(13) C   1           s(  0.00%)p 1.00(  9.86%)d 9.14( 90.14%)
    35. (0.00000) RY*(14) C   1           s(  0.00%)p 1.00( 99.90%)d 0.00(  0.10%)
    36. (0.00000) RY*(15) C   1           s( 99.42%)p 0.00(  0.39%)d 0.00(  0.19%)
    37. (0.00000) RY*(16) C   1           s(  0.39%)p99.99( 51.52%)d99.99( 48.09%)
    38. (0.00000) RY*(17) C   1           s(  3.38%)p25.44( 85.98%)d 3.15( 10.64%)
    39. (0.00599) RY*( 1) C   2           s(  0.84%)p99.99( 93.94%)d 6.26(  5.23%)
                                            0.0000 -0.0166  0.0861 -0.0257  0.0005
                                           -0.0000 -0.0000 -0.0000 -0.0000  0.0303
                                           -0.8359  0.0396 -0.0548 -0.0175  0.4830
                                           -0.0226  0.0318 -0.0000 -0.0000  0.1964
                                            0.0827  0.0829
    40. (0.00221) RY*( 2) C   2           s(  0.00%)p 1.00( 99.01%)d 0.01(  0.99%)
                                           -0.0000  0.0001  0.0018 -0.0003 -0.0002
                                            0.0000  0.0000  0.0000  0.0000  0.0229
                                            0.4746 -0.1040 -0.1054  0.0398  0.8214
                                           -0.1802 -0.1833  0.0000  0.0000 -0.0500
                                            0.0431  0.0746
    41. (0.00076) RY*( 3) C   2           s(  0.00%)p 1.00( 82.15%)d 0.22( 17.85%)
                                            0.0000  0.0000  0.0000  0.0000  0.0000
                                           -0.0085  0.8818  0.1790  0.1085  0.0000
                                            0.0000  0.0000  0.0000  0.0000  0.0000
                                            0.0000  0.0000  0.1006 -0.4104  0.0000
                                            0.0000  0.0000
    42. (0.00062) RY*( 4) C   2           s(  0.00%)p 1.00(  8.41%)d10.88( 91.59%)
                                            0.0000  0.0000  0.0000  0.0000  0.0000
                                           -0.0130  0.2819  0.0572  0.0355  0.0000
                                            0.0000  0.0000  0.0000  0.0000  0.0000
                                            0.0000  0.0000  0.5586  0.7771  0.0000
                                            0.0000  0.0000
    43. (0.00037) RY*( 5) C   2           s( 93.99%)p 0.05(  4.64%)d 0.01(  1.37%)
                                           -0.0000  0.0046  0.9650 -0.0780 -0.0515
                                            0.0000  0.0000  0.0000  0.0000 -0.0265
                                            0.0808 -0.0066  0.1645  0.0156 -0.0476
                                            0.0102 -0.0973  0.0000  0.0000  0.0831
                                           -0.0380  0.0730
    44. (0.00029) RY*( 6) C   2           s(  0.00%)p 1.00( 81.92%)d 0.22( 18.07%)
                                            0.0000  0.0000  0.0065 -0.0012 -0.0004
                                           -0.0000 -0.0000 -0.0000 -0.0000 -0.0131
                                           -0.0781 -0.4170  0.1563 -0.0223 -0.1361
                                           -0.7231  0.2698 -0.0000 -0.0000 -0.2122
                                            0.1842  0.3190
    45. (0.00010) RY*( 7) C   2           s( 23.40%)p 0.61( 14.21%)d 2.67( 62.39%)
    46. (0.00007) RY*( 8) C   2           s(  0.00%)p 1.00( 34.91%)d 1.86( 65.09%)
    47. (0.00004) RY*( 9) C   2           s(  0.50%)p98.58( 48.84%)d99.99( 50.66%)
[...]
      5        6           0.000000000    0.000142680    0.000000000
      6        1           0.000000000    0.000044970    0.000025667
      7        6          -0.000000000   -0.000166950   -0.000019702
      8        1          -0.000000000   -0.000014551   -0.000000000
      9        6           0.000000000    0.000166950   -0.000019702
     10        1          -0.000000000    0.000044970   -0.000025667
     11        1          -0.000000000   -0.000044970   -0.000025667
     12        1          -0.000000000    0.000014551   -0.000000000
 -------------------------------------------------------------------
 Cartesian Forces:  Max     0.000166950 RMS     0.000067681
 FormGI is forming the generalized inverse of G from B-inverse, IUseBI=4.

 GradGradGradGradGradGradGradGradGradGradGradGradGradGradGradGradGradGrad
 Berny optimization.
 Internal  Forces:  Max     0.000069987 RMS     0.000030582
 Search for a local minimum.
 Step number   1 out of a maximum of    2
 All quantities printed in internal units (Hartrees-Bohrs-Radians)
 Second derivative matrix not updated -- analytic derivatives used.
 ITU=  0
     Eigenvalues ---    0.01744   0.01744   0.01861   0.02438   0.02439
     Eigenvalues ---    0.02678   0.02909   0.02909   0.02968   0.10917
     Eigenvalues ---    0.11371   0.11374   0.12101   0.12628   0.12636
     Eigenvalues ---    0.19478   0.19662   0.19703   0.27789   0.35872
     Eigenvalues ---    0.35873   0.36124   0.36127   0.36151   0.36310
     Eigenvalues ---    0.42307   0.42323   0.48384   0.48408   0.52250
 Angle between quadratic step and forces=  18.47 degrees.
 Linear search not attempted -- first point.
 Iteration  1 RMS(Cart)=  0.00020875 RMS(Int)=  0.00000003
 Iteration  2 RMS(Cart)=  0.00000004 RMS(Int)=  0.00000000
 ClnCor:  largest displacement from symmetrization is 7.37D-12 for atom    10.
 Variable       Old X    -DE/DX   Delta X   Delta X   Delta X     New X
                                 (Linear)    (Quad)   (Total)
    R1        2.62805   0.00006   0.00000   0.00021   0.00021   2.62826
    R2        2.62834   0.00001   0.00000  -0.00004  -0.00004   2.62830
    R3        2.04925  -0.00000   0.00000  -0.00001  -0.00001   2.04924
    R4        2.62834   0.00001   0.00000  -0.00004  -0.00004   2.62830
    R5        2.04925  -0.00000   0.00000  -0.00001  -0.00001   2.04924
    R6        2.62834   0.00001   0.00000  -0.00004  -0.00004   2.62830
    R7        2.04917   0.00001   0.00000   0.00006   0.00006   2.04923
    R8        2.62834   0.00001   0.00000  -0.00004  -0.00004   2.62830
    R9        2.04917   0.00001   0.00000   0.00006   0.00006   2.04923
   R10        2.62805   0.00006   0.00000   0.00021   0.00021   2.62826
   R11        2.04925  -0.00000   0.00000  -0.00001  -0.00001   2.04924
   R12        2.04925  -0.00000   0.00000  -0.00001  -0.00001   2.04924
    A1        2.09450  -0.00003   0.00000  -0.00015  -0.00015   2.09435
    A2        2.09481  -0.00004   0.00000  -0.00034  -0.00034   2.09447
    A3        2.09388   0.00007   0.00000   0.00049   0.00049   2.09436
    A4        2.09450  -0.00003   0.00000  -0.00015  -0.00015   2.09435
    A5        2.09481  -0.00004   0.00000  -0.00034  -0.00034   2.09447
    A6        2.09388   0.00007   0.00000   0.00049   0.00049   2.09436
    A7        2.09419   0.00007   0.00000   0.00030   0.00030   2.09448
    A8        2.09450  -0.00003   0.00000  -0.00015  -0.00015   2.09435
    A9        2.09450  -0.00003   0.00000  -0.00015  -0.00015   2.09435
   A10        2.09419   0.00007   0.00000   0.00030   0.00030   2.09448
   A11        2.09450  -0.00003   0.00000  -0.00015  -0.00015   2.09435
   A12        2.09450  -0.00003   0.00000  -0.00015  -0.00015   2.09435
   A13        2.09450  -0.00003   0.00000  -0.00015  -0.00015   2.09435
   A14        2.09388   0.00007   0.00000   0.00049   0.00049   2.09436
   A15        2.09481  -0.00004   0.00000  -0.00034  -0.00034   2.09447
   A16        2.09450  -0.00003   0.00000  -0.00015  -0.00015   2.09435
   A17        2.09388   0.00007   0.00000   0.00049   0.00049   2.09436
   A18        2.09481  -0.00004   0.00000  -0.00034  -0.00034   2.09447
    D1        0.00000  -0.00000   0.00000  -0.00000  -0.00000   0.00000
    D2        3.14159   0.00000   0.00000   0.00000   0.00000   3.14159
    D3        3.14159  -0.00000   0.00000  -0.00000   0.00000   3.14159
    D4       -0.00000   0.00000   0.00000  -0.00000   0.00000   0.00000
    D5       -0.00000   0.00000   0.00000   0.00000   0.00000   0.00000
    D6        3.14159  -0.00000   0.00000  -0.00000   0.00000   3.14159
    D7        3.14159   0.00000   0.00000   0.00000   0.00000   3.14159
    D8        0.00000  -0.00000   0.00000  -0.00000   0.00000   0.00000
    D9        0.00000  -0.00000   0.00000  -0.00000   0.00000   0.00000
   D10        3.14159   0.00000   0.00000   0.00000   0.00000   3.14159
   D11        3.14159  -0.00000   0.00000  -0.00000   0.00000   3.14159
   D12       -0.00000   0.00000   0.00000   0.00000   0.00000   0.00000
   D13        0.00000  -0.00000   0.00000  -0.00000   0.00000   0.00000
   D14        3.14159  -0.00000   0.00000  -0.00000   0.00000   3.14159
   D15        3.14159   0.00000   0.00000   0.00000   0.00000   3.14159
   D16       -0.00000   0.00000   0.00000   0.00000   0.00000   0.00000
   D17       -0.00000   0.00000   0.00000   0.00000   0.00000   0.00000
   D18        3.14159   0.00000   0.00000   0.00000   0.00000   3.14159
   D19        3.14159  -0.00000   0.00000  -0.00000   0.00000   3.14159
   D20        0.00000  -0.00000   0.00000  -0.00000   0.00000   0.00000
   D21        0.00000  -0.00000   0.00000  -0.00000   0.00000   0.00000
   D22        3.14159   0.00000   0.00000   0.00000   0.00000   3.14159
   D23        3.14159  -0.00000   0.00000  -0.00000   0.00000   3.14159
   D24       -0.00000  -0.00000   0.00000  -0.00000   0.00000   0.00000
         Item               Value     Threshold  Converged?
 Maximum Force            0.000070     0.000450     YES
 RMS     Force            0.000031     0.000300     YES
 Maximum Displacement     0.000503     0.001800     YES
 RMS     Displacement     0.000209     0.001200     YES
 Predicted change in Energy=-1.453711D-07
 Optimization completed.
    -- Stationary point found.
                           ----------------------------
                           !   Optimized Parameters   !
                           ! (Angstroms and Degrees)  !
 --------------------------                            --------------------------
 ! Name  Definition              Value          Derivative Info.                !
 --------------------------------------------------------------------------------
 ! R1    R(1,2)                  1.3907         -DE/DX =    0.0001              !
 ! R2    R(1,3)                  1.3909         -DE/DX =    0.0                 !
 ! R3    R(1,4)                  1.0844         -DE/DX =    0.0                 !
 ! R4    R(2,5)                  1.3909         -DE/DX =    0.0                 !
 ! R5    R(2,6)                  1.0844         -DE/DX =    0.0                 !
 ! R6    R(3,9)                  1.3909         -DE/DX =    0.0                 !
 ! R7    R(3,12)                 1.0844         -DE/DX =    0.0                 !
 ! R8    R(5,7)                  1.3909         -DE/DX =    0.0                 !
 ! R9    R(5,8)                  1.0844         -DE/DX =    0.0                 !
 ! R10   R(7,9)                  1.3907         -DE/DX =    0.0001              !
 ! R11   R(7,10)                 1.0844         -DE/DX =    0.0                 !
 ! R12   R(9,11)                 1.0844         -DE/DX =    0.0                 !
 ! A1    A(2,1,3)              120.006          -DE/DX =    0.0                 !
 ! A2    A(2,1,4)              120.0237         -DE/DX =    0.0                 !
 ! A3    A(3,1,4)              119.9704         -DE/DX =    0.0001              !
 ! A4    A(1,2,5)              120.006          -DE/DX =    0.0                 !
 ! A5    A(1,2,6)              120.0237         -DE/DX =    0.0                 !
 ! A6    A(5,2,6)              119.9704         -DE/DX =    0.0001              !
 ! A7    A(1,3,9)              119.9881         -DE/DX =    0.0001              !
 ! A8    A(1,3,12)             120.006          -DE/DX =    0.0                 !
 ! A9    A(9,3,12)             120.006          -DE/DX =    0.0                 !
 ! A10   A(2,5,7)              119.9881         -DE/DX =    0.0001              !
 ! A11   A(2,5,8)              120.006          -DE/DX =    0.0                 !
 ! A12   A(7,5,8)              120.006          -DE/DX =    0.0                 !
 ! A13   A(5,7,9)              120.006          -DE/DX =    0.0                 !
 ! A14   A(5,7,10)             119.9704         -DE/DX =    0.0001              !
 ! A15   A(9,7,10)             120.0237         -DE/DX =    0.0                 !
 ! A16   A(3,9,7)              120.006          -DE/DX =    0.0                 !
 ! A17   A(3,9,11)             119.9704         -DE/DX =    0.0001              !
 ! A18   A(7,9,11)             120.0237         -DE/DX =    0.0                 !
 ! D1    D(3,1,2,5)              0.0            -DE/DX =    0.0                 !
 ! D2    D(3,1,2,6)            180.0            -DE/DX =    0.0                 !
 ! D3    D(4,1,2,5)            180.0            -DE/DX =    0.0                 !
 ! D4    D(4,1,2,6)              0.0            -DE/DX =    0.0                 !
 ! D5    D(2,1,3,9)              0.0            -DE/DX =    0.0                 !
 ! D6    D(2,1,3,12)           180.0            -DE/DX =    0.0                 !
 ! D7    D(4,1,3,9)            180.0            -DE/DX =    0.0                 !
 ! D8    D(4,1,3,12)             0.0            -DE/DX =    0.0                 !
 ! D9    D(1,2,5,7)              0.0            -DE/DX =    0.0                 !
 ! D10   D(1,2,5,8)            180.0            -DE/DX =    0.0                 !
 ! D11   D(6,2,5,7)            180.0            -DE/DX =    0.0                 !
 ! D12   D(6,2,5,8)              0.0            -DE/DX =    0.0                 !
 ! D13   D(1,3,9,7)              0.0            -DE/DX =    0.0                 !
 ! D14   D(1,3,9,11)           180.0            -DE/DX =    0.0                 !
 ! D15   D(12,3,9,7)           180.0            -DE/DX =    0.0                 !
 ! D16   D(12,3,9,11)            0.0            -DE/DX =    0.0                 !
 ! D17   D(2,5,7,9)              0.0            -DE/DX =    0.0                 !
 ! D18   D(2,5,7,10)           180.0            -DE/DX =    0.0                 !
 ! D19   D(8,5,7,9)            180.0            -DE/DX =    0.0                 !
 ! D20   D(8,5,7,10)             0.0            -DE/DX =    0.0                 !
 ! D21   D(5,7,9,3)              0.0            -DE/DX =    0.0                 !
 ! D22   D(5,7,9,11)           180.0            -DE/DX =    0.0                 !
 ! D23   D(10,7,9,3)           180.0            -DE/DX =    0.0                 !
 ! D24   D(10,7,9,11)            0.0            -DE/DX =    0.0                 !
 --------------------------------------------------------------------------------
 GradGradGradGradGradGradGradGradGradGradGradGradGradGradGradGradGradGrad

 Dipole is zero, so no output in dipole orientation.

 ----------------------------------------------------------------------

 Electric dipole moment (input orientation):
 (Debye = 10**-18 statcoulomb cm , SI units = C m)
                  (au)            (Debye)         (10**-30 SI)
   Tot        0.000000D+00      0.000000D+00      0.000000D+00
   x          0.000000D+00      0.000000D+00      0.000000D+00
   y          0.000000D+00      0.000000D+00      0.000000D+00
   z          0.000000D+00      0.000000D+00      0.000000D+00

 Dipole polarizability, Alpha (input orientation).
 (esu units = cm**3 , SI units = C**2 m**2 J**-1)
 Alpha(0;0):
               (au)            (10**-24 esu)      (10**-40 SI)
   iso        0.650929D+02      0.964577D+01      0.107324D+02
   aniso      0.362039D+02      0.536486D+01      0.596921D+01
   xx         0.409569D+02      0.606919D+01      0.675289D+01
   yx         0.000000D+00      0.000000D+00      0.000000D+00
   yy         0.771530D+02      0.114329D+02      0.127208D+02
   zx         0.000000D+00      0.000000D+00      0.000000D+00
   zy         0.000000D+00      0.000000D+00      0.000000D+00
   zz         0.771687D+02      0.114352D+02      0.127234D+02

 ----------------------------------------------------------------------
 1\1\GINC-HPC-CN06\Freq\RwB97XD\6-311++G(d,p)\C6H6\RU80JOHN\27-Dec-2023
 \0\\#N Geom=AllCheck Guess=TCheck SCRF=Check GenChk RwB97XD/6-311++G(d
 ,p) Freq\\BEN\\0,1\C,0.,0.6953511627,1.2044437201\C,0.,-0.6953511627,1
 .2044437201\C,0.,1.3909044736,0.\H,0.,1.23794763,2.1433529158\C,0.,-1.
 3909044736,0.\H,0.,-1.23794763,2.1433529158\C,0.,-0.6953511627,-1.2044
 437201\H,0.,-2.4752775466,0.\C,0.,0.6953511627,-1.2044437201\H,0.,-1.2
 3794763,-2.1433529158\H,0.,1.23794763,-2.1433529158\H,0.,2.4752775466,
 0.\\Version=AM64L-G16RevB.01\State=1-AG\HF=-232.2210226\RMSD=7.341e-10
 \RMSF=6.768e-05\ZeroPoint=0.1011018\Thermal=0.1054628\Dipole=0.,0.,0.\
 DipoleDeriv=-0.1435978,0.,0.,0.,-0.019947,0.064341,0.,0.0636733,0.0536
 981,-0.1435978,0.,0.,0.,-0.019947,-0.064341,0.,-0.0636734,0.0536981,-0
 .1436666,0.,0.,0.,0.0901607,0.,0.,0.,-0.0571365,0.1435688,0.,0.,0.,0.0
 273108,-0.0761852,0.,-0.0761974,-0.0609015,-0.1436666,0.,0.,0.,0.09016
 07,0.,0.,0.,-0.0571365,0.1435688,0.,0.,0.,0.0273108,0.0761852,0.,0.076
 1974,-0.0609015,-0.1435978,0.,0.,0.,-0.019947,0.064341,0.,0.0636733,0.
 0536981,0.1437246,0.,0.,0.,-0.1048883,0.,0.,0.,0.0715434,-0.1435978,0.
 ,0.,0.,-0.019947,-0.064341,0.,-0.0636733,0.0536981,0.1435688,0.,0.,0.,
 0.0273108,-0.0761852,0.,-0.0761975,-0.0609015,0.1435688,0.,0.,0.,0.027
 3108,0.0761852,0.,0.0761974,-0.0609015,0.1437246,0.,0.,0.,-0.1048883,0
 .,0.,0.,0.0715434\Polar=40.9569426,0.,77.1529899,0.,0.,77.1686619\Quad
 rupole=-4.2562773,2.1316887,2.1245886,0.,0.,0.\PG=D02H [C2"(H1C1.C1H1)
 ,SG(C4H4)]\NImag=0\\0.13963273,0.,0.69547107,0.,0.03350060,0.73386201,
 -0.06564805,0.,0.,0.13963273,0.,-0.34459694,-0.03627368,0.,0.69547107,
 0.,0.03627368,-0.13353639,0.,-0.03350060,0.73386201,-0.06571101,0.,0.,
 0.00835148,0.,0.,0.13964246,0.,-0.18609792,0.12773213,0.,-0.02554895,0
 .02969829,0.,0.75272144,0.,0.05509725,-0.29151249,0.,0.08446365,0.0404
 3169,0.,0.,0.67550269,-0.03821244,0.,0.,0.00351595,0.,0.,0.00353098,0.
 ,0.,0.02624598,0.,-0.13019820,-0.12139295,0.,-0.00950400,-0.02912247,0
 .,0.01167127,0.01524368,0.,0.13415738,0.,-0.12135978,-0.27007053,0.,0.
 00300714,0.00370339,0.,-0.01690937,-0.01754923,0.,0.13056272,0.2846426
 6,0.00835148,0.,0.,-0.06571101,0.,0.,-0.00797148,0.,0.,0.00751827,0.,0
 .,0.13964246,0.,-0.02554895,-0.02969829,0.,-0.18609792,-0.12773213,0.,
 -0.00182000,0.,0.,-0.00578638,0.00044980,0.,0.75272144,0.,-0.08446365,
 0.04043169,0.,-0.05509725,-0.29151249,0.,0.,-0.08050301,0.,0.00108479,
 0.00183805,0.,0.,0.67550269,0.00351595,0.,0.,-0.03821244,0.,0.,0.00751
 827,0.,0.,-0.00412400,0.,0.,0.00353098,0.,0.,0.02624598,0.,-0.00950400
 ,0.02912247,0.,-0.13019820,0.12139295,0.,-0.00578638,-0.00108479,0.,0.
 00073899,-0.00042529,0.,0.01167127,-0.01524368,0.,0.13415738,0.,-0.003
 00714,0.00370339,0.,0.12135978,-0.27007053,0.,-0.00044980,0.00183805,0
 .,0.00042529,0.00069941,0.,0.01690937,-0.01754923,0.,-0.13056272,0.284
 64266,-0.00795939,0.,0.,0.00835994,0.,0.,0.00835148,0.,0.,-0.00086667,
 0.,0.,-0.06571102,0.,0.,0.00751488,0.,0.,0.13963273,0.,-0.06088379,0.0
 3390636,0.,0.07326624,0.02741202,0.,-0.02554894,-0.08446364,0.,-0.0008
 4332,0.00096378,0.,-0.18609792,0.05509726,0.,-0.00073207,-0.00401007,0
 .,0.69547107,0.,0.03390636,-0.02181347,0.,-0.02741202,-0.05863846,0.,-
 0.02969829,0.04043169,0.,0.00095876,0.00026217,0.,0.12773213,-0.291512
 48,0.,-0.00337135,-0.00323526,0.,0.03350060,0.73386201,0.00750857,0.,0
 .,0.00351400,0.,0.,-0.00086765,0.,0.,0.00009844,0.,0.,-0.03818275,0.,0
 .,-0.00411832,0.,0.,0.00351400,0.,0.,0.02624118,0.,0.00059564,-0.00324
 800,0.,-0.01092778,0.00382405,0.,0.00080965,0.,0.,-0.00067023,0.000174
 66,0.,-0.34018716,0.,0.,0.00071257,-0.00040162,0.,-0.01092778,-0.00382
 406,0.,0.36004270,0.,-0.00260572,-0.00455205,0.,-0.02829265,0.00509939
 ,0.,0.,-0.00139954,0.,-0.00139648,0.00003752,0.,0.,-0.06001619,0.,0.00
 043492,0.00073818,0.,0.02829265,0.00509939,0.,0.,0.05865482,0.00835994
 ,0.,0.,-0.00795939,0.,0.,-0.06571102,0.,0.,0.00751488,0.,0.,0.00835148
 ,0.,0.,-0.00086667,0.,0.,-0.06564805,0.,0.,0.00750858,0.,0.,0.13963273
 ,0.,0.07326624,-0.02741202,0.,-0.06088379,-0.03390636,0.,-0.18609792,-
 0.05509726,0.,-0.00073207,0.00401007,0.,-0.02554894,0.08446364,0.,-0.0
 0084332,-0.00096378,0.,-0.34459694,-0.03627368,0.,0.00059564,0.0026057
 2,0.,0.69547107,0.,0.02741202,-0.05863846,0.,-0.03390636,-0.02181347,0
 .,-0.12773213,-0.29151248,0.,0.00337135,-0.00323526,0.,0.02969829,0.04
 043169,0.,-0.00095876,0.00026217,0.,0.03627368,-0.13353639,0.,0.003248
 00,-0.00455205,0.,-0.03350060,0.73386201,-0.00086667,0.,0.,0.00751488,
 0.,0.,0.00751827,0.,0.,-0.00120150,0.,0.,0.00353098,0.,0.,0.00009842,0
 .,0.,-0.03821244,0.,0.,-0.00411832,0.,0.,0.00351595,0.,0.,0.02624598,0
 .,-0.00084332,0.00095876,0.,-0.00073207,0.00337135,0.,-0.00578638,0.00
 108479,0.,0.00006472,-0.00008757,0.,0.01167127,0.01524368,0.,0.0003892
 6,0.00078778,0.,-0.13019820,-0.12139295,0.,0.00071257,-0.00043492,0.,-
 0.00950400,-0.02912247,0.,0.13415738,0.,0.00096378,0.00026217,0.,0.004
 01007,-0.00323526,0.,0.00044980,0.00183805,0.,-0.00008757,-0.00003611,
 0.,-0.01690937,-0.01754923,0.,-0.00078778,-0.00103026,0.,-0.12135978,-
 0.27007053,0.,0.00040162,0.00073818,0.,0.00300714,0.00370339,0.,0.1305
 6272,0.28464266,0.00751488,0.,0.,-0.00086667,0.,0.,0.00353098,0.,0.,0.
 00009842,0.,0.,0.00751827,0.,0.,-0.00120150,0.,0.,0.00351595,0.,0.,0.0
 0009844,0.,0.,-0.03821244,0.,0.,-0.00412400,0.,0.,0.02624598,0.,-0.000
 73207,-0.00337135,0.,-0.00084332,-0.00095876,0.,0.01167127,-0.01524368
 ,0.,0.00038926,-0.00078778,0.,-0.00578638,-0.00108479,0.,0.00006472,0.
 00008757,0.,-0.00950400,0.02912247,0.,-0.00067023,0.00139648,0.,-0.130
 19820,0.12139295,0.,0.00073899,-0.00042529,0.,0.13415738,0.,-0.0040100
 7,-0.00323526,0.,-0.00096378,0.00026217,0.,0.01690937,-0.01754923,0.,0
 .00078778,-0.00103026,0.,-0.00044980,0.00183805,0.,0.00008757,-0.00003
 611,0.,-0.00300714,0.00370339,0.,-0.00017466,0.00003752,0.,0.12135978,
 -0.27007053,0.,0.00042529,0.00069941,0.,-0.13056272,0.28464266,0.00351
 400,0.,0.,0.00750857,0.,0.,-0.03818275,0.,0.,-0.00411832,0.,0.,-0.0008
 6765,0.,0.,0.00009844,0.,0.,0.00750858,0.,0.,-0.00119618,0.,0.,0.00351
 400,0.,0.,0.00009844,0.,0.,-0.00411832,0.,0.,0.02624118,0.,-0.01092778
 ,-0.00382405,0.,0.00059564,0.00324800,0.,-0.34018716,0.,0.,0.00071257,
 0.00040162,0.,0.00080965,0.,0.,-0.00067023,-0.00017466,0.,0.00059564,-
 0.00324800,0.,-0.00008558,0.,0.,-0.01092778,0.00382406,0.,-0.00067023,
 0.00017466,0.,0.00071257,-0.00040162,0.,0.36004270,0.,0.02829265,0.005
 09939,0.,0.00260572,-0.00455205,0.,0.,-0.06001619,0.,-0.00043492,0.000
 73818,0.,0.,-0.00139954,0.,0.00139648,0.00003752,0.,-0.00260572,-0.004
 55205,0.,0.,0.00011484,0.,-0.02829265,0.00509939,0.,-0.00139648,0.0000
 3752,0.,0.00043492,0.00073818,0.,0.,0.05865482\\0.,-0.00016695,-0.0000
 1970,0.,0.00016695,-0.00001970,0.,0.00014268,0.,0.,0.00004497,-0.00002
 567,0.,-0.00014268,0.,0.,-0.00004497,-0.00002567,0.,0.00016695,0.00001
 970,0.,0.00001455,0.,0.,-0.00016695,0.00001970,0.,-0.00004497,0.000025
 67,0.,0.00004497,0.00002567,0.,-0.00001455,0.\\\@


 THE NUMBERS ARE MEANINGLESS, BUT THE TRENDS ARE IMPORTANT.
     -- LARRY BURGGRAF
 Job cpu time:       0 days  0 hours  5 minutes 19.4 seconds.
 Elapsed time:       0 days  0 hours  0 minutes 28.0 seconds.
 File lengths (MBytes):  RWF=     98 Int=      0 D2E=      0 Chk=      4 Scr=      2
 Normal termination of Gaussian 16 at Wed Dec 27 12:45:03 2023.
